LAMMPS (22 Jul 2025 - Update 3)
KOKKOS mode with Kokkos version 4.6.2 is enabled
  using 64 OpenMP thread(s) per MPI task
package kokkos
# Yukawa OCP: k2_G31 (kappa=2.0, Gamma=31.0)
# Matches hotSpring/barraCuda dsf_pp_cases

package         kokkos
units           lj
atom_style      atomic
boundary        p p p

lattice         fcc 0.238732414637843
Lattice spacing in x,y,z = 2.5588777 2.5588777 2.5588777
region          box block 0 8 0 8 0 8
create_box      1 box
Created orthogonal box = (0 0 0) to (20.471022 20.471022 20.471022)
  1 by 1 by 1 MPI processor grid
create_atoms    1 box
Created 2048 atoms
  using lattice units in orthogonal box = (0 0 0) to (20.471022 20.471022 20.471022)
  create_atoms CPU = 0.046 seconds
mass            1 1.0

pair_style      yukawa 2.0 6.5
pair_coeff      1 1 1.0

velocity        all create 0.03225806451612903 42 dist gaussian

# Equilibration with Berendsen-like thermostat
fix             therm all nvt temp 0.03225806451612903 0.03225806451612903 1.0
timestep        0.01
thermo_style    custom step temp pe ke etotal press
thermo          100

run             2000
Generated 0 of 0 mixed pair_coeff terms from geometric mixing rule
Neighbor list info ...
  update: every = 1 steps, delay = 0 steps, check = yes
  max neighbors/atom: 2000, page size: 100000
  master list distance cutoff = 6.8
  ghost atom cutoff = 6.8
  binsize = 3.4, bins = 7 7 7
  1 neighbor lists, perpetual/occasional/extra = 1 0 0
  (1) pair yukawa/kk, perpetual
      attributes: half, newton on, kokkos_device
      pair build: half/bin/newton/kk/device
      stencil: half/bin/3d
      bin: kk/device
Per MPI rank memory allocation (min/avg/max) = 59.02 | 59.02 | 59.02 Mbytes
   Step          Temp          PotEng         KinEng         TotEng         Press     
         0   0.032258065    0.10590299     0.04836347     0.15426646     0.049950019  
       100   0.02530925     0.11797668     0.037945338    0.15592202     0.051094138  
       200   0.018355539    0.13302985     0.027519865    0.16054972     0.052744494  
       300   0.025287335    0.12945145     0.037912482    0.16736393     0.053632066  
       400   0.029623299    0.13031616     0.044413251    0.17472941     0.054746588  
       500   0.030712941    0.13511218     0.046046917    0.1811591      0.056055325  
       600   0.033240516    0.13650573     0.049836427    0.18634216     0.05701555   
       700   0.033681645    0.13744695     0.050497799    0.18794475     0.057303092  
       800   0.032384989    0.13719885     0.048553764    0.18575261     0.056921311  
       900   0.031115439    0.1369455      0.046650369    0.18359587     0.056566845  
      1000   0.031704987    0.13684409     0.04753426     0.18437835     0.056697235  
      1100   0.032982883    0.13706925     0.049450167    0.18651942     0.057042839  
      1200   0.032522867    0.13815368     0.04876048     0.18691416     0.057159376  
      1300   0.032508295    0.13746445     0.048738632    0.18620308     0.057044659  
      1400   0.031982816    0.13699549     0.047950799    0.18494629     0.056786749  
      1500   0.032015699    0.13643991     0.0480001      0.18444001     0.056655113  
      1600   0.031760403    0.13722621     0.047617342    0.18484355     0.056765685  
      1700   0.032532608    0.13741123     0.048775085    0.18618632     0.057041458  
      1800   0.032946674    0.13753121     0.04939588     0.18692709     0.057162854  
      1900   0.032459162    0.13724244     0.048664969    0.1859074      0.056960463  
      2000   0.031807558    0.13655751     0.04768804     0.18424555     0.056650175  
Loop time of 172.001 on 64 procs for 2000 steps with 2048 atoms

Performance: 10046.453 tau/day, 11.628 timesteps/s, 23.814 katom-step/s
5501.1% CPU use with 1 MPI tasks x 64 OpenMP threads

MPI task timing breakdown:
Section |  min time  |  avg time  |  max time  |%varavg| %total
---------------------------------------------------------------
Pair    | 65.737     | 65.737     | 65.737     |   0.0 | 38.22
Neigh   | 2.4498     | 2.4498     | 2.4498     |   0.0 |  1.42
Comm    | 0.36616    | 0.36616    | 0.36616    |   0.0 |  0.21
Output  | 0.13158    | 0.13158    | 0.13158    |   0.0 |  0.08
Modify  | 77.43      | 77.43      | 77.43      |   0.0 | 45.02
Other   |            | 25.89      |            |       | 15.05

Nlocal:           2048 ave        2048 max        2048 min
Histogram: 1 0 0 0 0 0 0 0 0 0
Nghost:           7416 ave        7416 max        7416 min
Histogram: 1 0 0 0 0 0 0 0 0 0
Neighs:         321219 ave      321219 max      321219 min
Histogram: 1 0 0 0 0 0 0 0 0 0

Total # of neighbors = 321219
Ave neighs/atom = 156.84521
Neighbor list builds = 96
Dangerous builds = 0

# Switch to NVE for production
unfix           therm
fix             nve all nve
reset_timestep  0
thermo          100

run             10000
Generated 0 of 0 mixed pair_coeff terms from geometric mixing rule
Per MPI rank memory allocation (min/avg/max) = 59.02 | 59.02 | 59.02 Mbytes
   Step          Temp          PotEng         KinEng         TotEng         Press     
         0   0.031807558    0.13655751     0.04768804     0.18424555     0.056650175  
       100   0.030864883    0.13797088     0.046274718    0.1842456      0.056689213  
       200   0.031501579    0.13701624     0.047229296    0.18424554     0.056702762  
       300   0.031451066    0.13709202     0.047153564    0.18424559     0.056728129  
       400   0.031077396    0.13765228     0.046593333    0.18424561     0.056740533  
       500   0.031554177    0.13693741     0.047308155    0.18424557     0.056710466  
       600   0.031281259    0.1373466      0.046898977    0.18424557     0.056730866  
       700   0.031036922    0.13771293     0.046532651    0.18424558     0.056730045  
       800   0.031850925    0.13649252     0.047753059    0.18424558     0.056683011  
       900   0.031153535    0.13753811     0.046707485    0.1842456      0.056709508  
      1000   0.03126408     0.13737236     0.046873222    0.18424558     0.05671849   
      1100   0.031113836    0.13759766     0.046647966    0.18424563     0.056709091  
      1200   0.03190577     0.13641026     0.047835286    0.18424555     0.056691029  
      1300   0.031278331    0.13735104     0.046894588    0.18424562     0.056699186  
      1400   0.032209762    0.13595454     0.048291052    0.1842456      0.056674416  
      1500   0.031324373    0.13728203     0.046963617    0.18424565     0.056712265  
      1600   0.031378114    0.13720144     0.047044189    0.18424563     0.056708076  
      1700   0.031529218    0.13697486     0.047270735    0.1842456      0.056696122  
      1800   0.03166439     0.13677217     0.047473393    0.18424556     0.056685702  
      1900   0.031656055    0.13678468     0.047460897    0.18424558     0.056688779  
      2000   0.03172514     0.13668111     0.047564473    0.18424559     0.05667223   
      2100   0.031504429    0.13701202     0.047233569    0.18424559     0.056665975  
      2200   0.031374554    0.13720672     0.047038852    0.18424557     0.056681393  
      2300   0.031465391    0.13707057     0.04717504     0.18424561     0.056660335  
      2400   0.031547731    0.13694708     0.04729849     0.18424557     0.056673877  
      2500   0.030833246    0.13801833     0.046227287    0.18424562     0.05674093   
      2600   0.031019017    0.13773979     0.046505806    0.18424559     0.056746561  
      2700   0.031249916    0.1373936      0.046851986    0.18424558     0.056694928  
      2800   0.0320365      0.13621431     0.048031286    0.18424559     0.056634662  
      2900   0.031611897    0.13685092     0.047394693    0.18424561     0.056669705  
      3000   0.030812433    0.1380495      0.046196082    0.18424558     0.056754315  
      3100   0.031048427    0.13769566     0.0465499      0.18424556     0.056742001  
      3200   0.031634458    0.13681705     0.047428518    0.18424557     0.056680892  
      3300   0.031581717    0.13689615     0.047349445    0.18424559     0.056679136  
      3400   0.030823947    0.13803225     0.046213345    0.18424559     0.056748881  
      3500   0.031096687    0.13762333     0.046622255    0.18424558     0.056718196  
      3600   0.031409263    0.13715467     0.04709089     0.18424556     0.056689399  
      3700   0.031363622    0.13722311     0.047022461    0.18424558     0.056700539  
      3800   0.031219353    0.1374394      0.046806164    0.18424556     0.056702448  
      3900   0.031400673    0.13716754     0.047078012    0.18424555     0.056699446  
      4000   0.030977989    0.13780127     0.046444294    0.18424557     0.056729956  
      4100   0.031169671    0.13751389     0.046731677    0.18424557     0.056712171  
      4200   0.031447367    0.13709753     0.047148018    0.18424555     0.056697855  
      4300   0.031095186    0.13762557     0.046620004    0.18424558     0.056726376  
      4400   0.031419319    0.13713958     0.047105966    0.18424554     0.056682433  
      4500   0.031452055    0.13709049     0.047155046    0.18424553     0.056640405  
      4600   0.03140395     0.13716261     0.047082925    0.18424553     0.05669295   
      4700   0.031341392    0.13725647     0.046989133    0.1842456      0.056705896  
      4800   0.031677302    0.13675283     0.047492752    0.18424558     0.056691313  
      4900   0.031668419    0.13676617     0.047479434    0.18424561     0.056680678  
      5000   0.03189464     0.13642697     0.0478186      0.18424557     0.056671166  
      5100   0.03158954     0.13688436     0.047361173    0.18424553     0.056707892  
      5200   0.031562285    0.13692528     0.04732031     0.18424559     0.056706517  
      5300   0.031856961    0.13648346     0.047762109    0.18424557     0.056669524  
      5400   0.031094946    0.13762596     0.046619645    0.1842456      0.056712062  
      5500   0.031247994    0.13739647     0.046849105    0.18424558     0.056724981  
      5600   0.031341186    0.13725678     0.046988825    0.18424561     0.056694459  
      5700   0.031510892    0.13700232     0.047243259    0.18424557     0.056688065  
      5800   0.031322327    0.13728504     0.046960549    0.18424558     0.056729237  
      5900   0.030976454    0.13780363     0.046441992    0.18424562     0.056754692  
      6000   0.031523822    0.13698292     0.047262645    0.18424557     0.056698224  
      6100   0.031660573    0.1367779      0.04746767     0.18424557     0.056659908  
      6200   0.031640692    0.13680769     0.047437864    0.18424555     0.056661793  
      6300   0.03165351     0.13678848     0.047457081    0.18424556     0.056661543  
      6400   0.031598118    0.13687153     0.047374034    0.18424556     0.056683483  
      6500   0.03178173     0.13659624     0.047649317    0.18424556     0.056662259  
      6600   0.03152786     0.13697694     0.047268699    0.18424564     0.056669846  
      6700   0.03181203     0.13655085     0.047694745    0.18424559     0.056700219  
      6800   0.031212945    0.13744905     0.046796556    0.1842456      0.056730915  
      6900   0.031339135    0.13725985     0.04698575     0.1842456      0.05668088   
      7000   0.031667615    0.13676734     0.047478228    0.18424557     0.056688336  
      7100   0.030851047    0.13799162     0.046253975    0.1842456      0.05678543   
      7200   0.030539058    0.13845939     0.04578622     0.18424561     0.056800259  
      7300   0.030946558    0.13784844     0.046397172    0.18424561     0.056737485  
      7400   0.031620631    0.13683778     0.047407786    0.18424556     0.056661607  
      7500   0.031346295    0.13724911     0.046996484    0.18424559     0.056686531  
      7600   0.03136195     0.1372256      0.047019955    0.18424556     0.056684295  
      7700   0.031698762    0.13672064     0.047524927    0.18424557     0.05665757   
      7800   0.031535426    0.13696553     0.047280042    0.18424557     0.056683545  
      7900   0.031198381    0.13747086     0.04677472     0.18424558     0.056712158  
      8000   0.031172095    0.13751022     0.046735312    0.18424554     0.056723612  
      8100   0.031524429    0.13698197     0.047263555    0.18424552     0.05669925   
      8200   0.031207207    0.13745765     0.046787954    0.18424561     0.056703147  
      8300   0.031323276    0.13728364     0.046961973    0.18424561     0.056687759  
      8400   0.031278127    0.13735127     0.046894282    0.18424556     0.056712122  
      8500   0.031137533    0.13756208     0.046683494    0.18424558     0.056727745  
      8600   0.031156112    0.13753425     0.046711348    0.1842456      0.056727099  
      8700   0.031474088    0.13705749     0.04718808     0.18424557     0.056713922  
      8800   0.031013724    0.13774772     0.04649787     0.18424559     0.05672751   
      8900   0.031412051    0.13715051     0.047095069    0.18424558     0.056696024  
      9000   0.031374681    0.13720652     0.047039043    0.18424556     0.056710105  
      9100   0.031529157    0.13697494     0.047270643    0.18424559     0.056723745  
      9200   0.03122039     0.13743792     0.046807719    0.18424564     0.056708615  
      9300   0.031856602    0.13648398     0.04776157     0.18424555     0.056638109  
      9400   0.031505824    0.13700991     0.04723566     0.18424557     0.056658796  
      9500   0.031535201    0.13696588     0.047279704    0.18424558     0.0567271    
      9600   0.031155288    0.13753548     0.046710113    0.18424559     0.056752826  
      9700   0.031337223    0.13726267     0.046982883    0.18424555     0.056712873  
      9800   0.031331042    0.13727192     0.046973615    0.18424553     0.056702204  
      9900   0.031033639    0.13771785     0.046527729    0.18424558     0.056738605  
     10000   0.031522393    0.13698507     0.047260502    0.18424557     0.056698834  
Loop time of 536.333 on 64 procs for 10000 steps with 2048 atoms

Performance: 16109.394 tau/day, 18.645 timesteps/s, 38.185 katom-step/s
5550.9% CPU use with 1 MPI tasks x 64 OpenMP threads

MPI task timing breakdown:
Section |  min time  |  avg time  |  max time  |%varavg| %total
---------------------------------------------------------------
Pair    | 329.14     | 329.14     | 329.14     |   0.0 | 61.37
Neigh   | 12.854     | 12.854     | 12.854     |   0.0 |  2.40
Comm    | 1.7999     | 1.7999     | 1.7999     |   0.0 |  0.34
Output  | 0.64795    | 0.64795    | 0.64795    |   0.0 |  0.12
Modify  | 63.41      | 63.41      | 63.41      |   0.0 | 11.82
Other   |            | 128.5      |            |       | 23.95

Nlocal:           2048 ave        2048 max        2048 min
Histogram: 1 0 0 0 0 0 0 0 0 0
Nghost:           7394 ave        7394 max        7394 min
Histogram: 1 0 0 0 0 0 0 0 0 0
Neighs:         320923 ave      320923 max      320923 min
Histogram: 1 0 0 0 0 0 0 0 0 0

Total # of neighbors = 320923
Ave neighs/atom = 156.70068
Neighbor list builds = 502
Dangerous builds = 0
Total wall time: 0:11:48
