LAMMPS (22 Jul 2025 - Update 3)
KOKKOS mode with Kokkos version 4.6.2 is enabled
  using 64 OpenMP thread(s) per MPI task
package kokkos
# Yukawa OCP: k1_G217 (kappa=1.0, Gamma=217.0)
# Matches hotSpring/barraCuda dsf_pp_cases

package         kokkos
units           lj
atom_style      atomic
boundary        p p p

lattice         fcc 0.238732414637843
Lattice spacing in x,y,z = 2.5588777 2.5588777 2.5588777
region          box block 0 8 0 8 0 8
create_box      1 box
Created orthogonal box = (0 0 0) to (20.471022 20.471022 20.471022)
  1 by 1 by 1 MPI processor grid
create_atoms    1 box
Created 2048 atoms
  using lattice units in orthogonal box = (0 0 0) to (20.471022 20.471022 20.471022)
  create_atoms CPU = 0.042 seconds
mass            1 1.0

pair_style      yukawa 1.0 8.0
pair_coeff      1 1 1.0

velocity        all create 0.004608294930875576 42 dist gaussian

# Equilibration with Berendsen-like thermostat
fix             therm all nvt temp 0.004608294930875576 0.004608294930875576 1.0
timestep        0.01
thermo_style    custom step temp pe ke etotal press
thermo          100

run             2000
Generated 0 of 0 mixed pair_coeff terms from geometric mixing rule
Neighbor list info ...
  update: every = 1 steps, delay = 0 steps, check = yes
  max neighbors/atom: 2000, page size: 100000
  master list distance cutoff = 8.3
  ghost atom cutoff = 8.3
  binsize = 4.15, bins = 5 5 5
  1 neighbor lists, perpetual/occasional/extra = 1 0 0
  (1) pair yukawa/kk, perpetual
      attributes: half, newton on, kokkos_device
      pair build: half/bin/newton/kk/device
      stencil: half/bin/3d
      bin: kk/device
Per MPI rank memory allocation (min/avg/max) = 59.18 | 59.18 | 59.18 Mbytes
   Step          Temp          PotEng         KinEng         TotEng         Press     
         0   0.0046082949   0.99911862     0.0069090672   1.0060277      0.29208893   
       100   0.0027031506   1.0022104      0.004052746    1.0062632      0.29199515   
       200   0.0022721484   1.0034277      0.0034065585   1.0068342      0.29196151   
       300   0.0027493283   1.0036989      0.0041219787   1.0078209      0.2920691    
       400   0.0022741763   1.005403       0.0034095987   1.0088126      0.29218586   
       500   0.0041264841   1.003913       0.0061867038   1.0100997      0.29241746   
       600   0.0036922651   1.0057525      0.0055356933   1.0112881      0.29255378   
       700   0.0043981784   1.005996       0.0065940462   1.0125901      0.29274885   
       800   0.0047897691   1.006152       0.0071811455   1.0133332      0.29284521   
       900   0.0041354917   1.0075092      0.0062002087   1.0137095      0.29286801   
      1000   0.0052291222   1.0066863      0.0078398534   1.0145262      0.29301397   
      1100   0.0044234027   1.0073933      0.0066318642   1.0140252      0.29291649   
      1200   0.004563887    1.0070015      0.0068424878   1.0138439      0.2928963    
      1300   0.0046432454   1.0068894      0.0069614673   1.0138508      0.29289879   
      1400   0.004603811    1.006877       0.0069023446   1.0137793      0.29289379   
      1500   0.0046454616   1.006711       0.0069647899   1.0136758      0.29287681   
      1600   0.0044595469   1.0068753      0.0066860542   1.0135614      0.29285894   
      1700   0.0047227298   1.0066501      0.0070806357   1.0137307      0.29289365   
      1800   0.0045796807   1.0068406      0.0068661667   1.0137068      0.29288335   
      1900   0.004701929    1.0066114      0.0070494497   1.0136608      0.29288165   
      2000   0.0045603977   1.0065952      0.0068372564   1.0134325      0.29284254   
Loop time of 169.972 on 64 procs for 2000 steps with 2048 atoms

Performance: 10166.380 tau/day, 11.767 timesteps/s, 24.098 katom-step/s
5523.6% CPU use with 1 MPI tasks x 64 OpenMP threads

MPI task timing breakdown:
Section |  min time  |  avg time  |  max time  |%varavg| %total
---------------------------------------------------------------
Pair    | 65.799     | 65.799     | 65.799     |   0.0 | 38.71
Neigh   | 0.93282    | 0.93282    | 0.93282    |   0.0 |  0.55
Comm    | 0.45607    | 0.45607    | 0.45607    |   0.0 |  0.27
Output  | 0.1354     | 0.1354     | 0.1354     |   0.0 |  0.08
Modify  | 77.279     | 77.279     | 77.279     |   0.0 | 45.47
Other   |            | 25.37      |            |       | 14.93

Nlocal:           2048 ave        2048 max        2048 min
Histogram: 1 0 0 0 0 0 0 0 0 0
Nghost:          10153 ave       10153 max       10153 min
Histogram: 1 0 0 0 0 0 0 0 0 0
Neighs:         589549 ave      589549 max      589549 min
Histogram: 1 0 0 0 0 0 0 0 0 0

Total # of neighbors = 589549
Ave neighs/atom = 287.86572
Neighbor list builds = 36
Dangerous builds = 0

# Switch to NVE for production
unfix           therm
fix             nve all nve
reset_timestep  0
thermo          100

run             10000
Generated 0 of 0 mixed pair_coeff terms from geometric mixing rule
Per MPI rank memory allocation (min/avg/max) = 59.09 | 59.09 | 59.09 Mbytes
   Step          Temp          PotEng         KinEng         TotEng         Press     
         0   0.0045603977   1.0065952      0.0068372564   1.0134325      0.29284254   
       100   0.0046172953   1.0065108      0.0069225612   1.0134334      0.29285195   
       200   0.0046774255   1.006419       0.0070127125   1.0134317      0.29285516   
       300   0.0047182667   1.006361       0.0070739443   1.0134349      0.29285368   
       400   0.0047201019   1.006362       0.0070766957   1.0134387      0.29285793   
       500   0.0047542436   1.0063142      0.0071278833   1.0134421      0.29286472   
       600   0.0046588951   1.0064606      0.0069849304   1.0134455      0.29286046   
       700   0.0046439882   1.006482       0.006962581    1.0134446      0.29286069   
       800   0.0046745929   1.0064318      0.0070084655   1.0134403      0.29285855   
       900   0.0045788193   1.0065783      0.0068648752   1.0134431      0.2928531    
      1000   0.0046001266   1.0065461      0.0068968207   1.0134429      0.29285666   
      1100   0.0046742951   1.006436       0.0070080191   1.013444       0.29286143   
      1200   0.00467736     1.0064323      0.0070126142   1.0134449      0.29286119   
      1300   0.0047151424   1.006375       0.0070692601   1.0134443      0.29286305   
      1400   0.0046472487   1.0064763      0.0069674693   1.0134437      0.29285763   
      1500   0.0046338903   1.006496       0.0069474415   1.0134435      0.29285729   
      1600   0.0046242643   1.0065091      0.0069330096   1.0134421      0.29285946   
      1700   0.0046206559   1.0065161      0.0069275996   1.0134437      0.29285638   
      1800   0.0046810521   1.0064232      0.0070181497   1.0134414      0.29285666   
      1900   0.0046474161   1.006478       0.0069677203   1.0134457      0.29286358   
      2000   0.0046879528   1.0064163      0.0070284957   1.0134448      0.29286488   
      2100   0.0046988867   1.0063973      0.0070448885   1.0134422      0.29286046   
      2200   0.0046708812   1.006437       0.0070029008   1.0134399      0.29285713   
      2300   0.0045104069   1.0066758      0.0067623069   1.0134381      0.29285137   
      2400   0.0046594487   1.0064541      0.0069857603   1.0134398      0.29285627   
      2500   0.0047283527   1.0063474      0.0070890659   1.0134364      0.29285302   
      2600   0.0044993766   1.0066899      0.0067457694   1.0134356      0.29284941   
      2700   0.0046355495   1.006484       0.006949929    1.013434       0.2928507    
      2800   0.0046288055   1.0064973      0.006939818    1.0134371      0.29284703   
      2900   0.0045283004   1.0066458      0.006789134    1.013435       0.29284932   
      3000   0.0046346647   1.006489       0.0069486025   1.0134376      0.2928562    
      3100   0.0046593604   1.0064564      0.006985628    1.013442       0.29285524   
      3200   0.0046871914   1.0064115      0.0070273541   1.0134388      0.2928548    
      3300   0.0045908081   1.0065539      0.0068828498   1.0134368      0.29285108   
      3400   0.0045427308   1.0066254      0.006810769    1.0134362      0.29284449   
      3500   0.0046112234   1.0065235      0.0069134578   1.013437       0.29284971   
      3600   0.0045942489   1.0065494      0.0068880084   1.0134374      0.29285308   
      3700   0.0045851182   1.0065623      0.0068743191   1.0134367      0.29284739   
      3800   0.0046063078   1.0065299      0.0069060879   1.013436       0.29284616   
      3900   0.0046327882   1.006493       0.0069457891   1.0134388      0.29285242   
      4000   0.0047142941   1.0063704      0.0070679884   1.0134384      0.29285654   
      4100   0.004671531    1.0064355      0.007003875    1.0134394      0.29285542   
      4200   0.0046932098   1.0064037      0.0070363773   1.0134401      0.29285542   
      4300   0.0046592617   1.0064592      0.0069854801   1.0134447      0.29285724   
      4400   0.0046836898   1.0064263      0.0070221043   1.0134484      0.2928593    
      4500   0.0046598459   1.0064637      0.0069863559   1.0134501      0.29285945   
      4600   0.0046516802   1.0064807      0.0069741133   1.0134548      0.2928669    
      4700   0.0047984947   1.0062624      0.0071942275   1.0134566      0.29287199   
      4800   0.0047121895   1.0063913      0.0070648329   1.0134562      0.29286605   
      4900   0.0047403606   1.0063482      0.0071070689   1.0134553      0.29286923   
      5000   0.0047198835   1.0063766      0.0070763684   1.013453       0.29286733   
      5100   0.0047037846   1.0064029      0.0070522318   1.0134551      0.29286623   
      5200   0.0046481354   1.0064851      0.0069687987   1.0134539      0.29286428   
      5300   0.0047050699   1.0064032      0.0070541588   1.0134574      0.29286868   
      5400   0.0047550233   1.0063236      0.0071290522   1.0134527      0.29286727   
      5500   0.0046079115   1.0065475      0.0069084923   1.013456       0.29286636   
      5600   0.0047222213   1.0063746      0.0070798733   1.0134545      0.29286706   
      5700   0.0047224438   1.0063736      0.0070802069   1.0134538      0.29286799   
      5800   0.0046793759   1.0064412      0.0070156365   1.0134568      0.29286821   
      5900   0.0048293832   1.0062119      0.0072405376   1.0134524      0.29286939   
      6000   0.0047017484   1.0064033      0.0070491789   1.0134525      0.29287082   
      6100   0.0046672309   1.0064555      0.0069974279   1.0134529      0.29286599   
      6200   0.0047145674   1.0063846      0.007068398    1.013453       0.29286373   
      6300   0.0045869699   1.0065736      0.0068770952   1.0134507      0.29286215   
      6400   0.0046896935   1.006415       0.0070311055   1.0134461      0.29286146   
      6500   0.0047634882   1.0063029      0.0071417435   1.0134446      0.2928627    
      6600   0.004722864    1.0063645      0.0070808369   1.0134454      0.29286427   
      6700   0.0047232022   1.0063644      0.0070813439   1.0134457      0.29286302   
      6800   0.0046426361   1.0064875      0.0069605537   1.0134481      0.29286057   
      6900   0.0045415942   1.006637       0.006809065    1.0134461      0.29285322   
      7000   0.0046343558   1.0064981      0.0069481394   1.0134462      0.29285627   
      7100   0.0045983478   1.0065508      0.0068941537   1.0134449      0.29285581   
      7200   0.0046618209   1.0064511      0.0069893169   1.0134404      0.29285527   
      7300   0.0046838783   1.0064192      0.0070223869   1.0134416      0.29285764   
      7400   0.004727951    1.0063571      0.0070884636   1.0134455      0.29286547   
      7500   0.0047303388   1.0063563      0.0070920436   1.0134484      0.29286745   
      7600   0.0046005924   1.0065509      0.0068975191   1.0134484      0.29285659   
      7700   0.0046753048   1.0064371      0.0070095329   1.0134467      0.29286009   
      7800   0.0046263879   1.0065116      0.0069361934   1.0134478      0.29286138   
      7900   0.0047314174   1.006353       0.0070936608   1.0134466      0.29286252   
      8000   0.0046174759   1.0065227      0.0069228319   1.0134456      0.29285855   
      8100   0.0046507877   1.0064714      0.0069727752   1.0134442      0.292859     
      8200   0.0047589342   1.0063121      0.0071349157   1.013447       0.29286334   
      8300   0.0045329982   1.0066481      0.0067961772   1.0134442      0.29285518   
      8400   0.0046119955   1.0065291      0.0069146153   1.0134437      0.29285758   
      8500   0.0046151946   1.0065239      0.0069194116   1.0134433      0.2928539    
      8600   0.0045561827   1.0066133      0.006830937    1.0134443      0.29285519   
      8700   0.0046494489   1.006474       0.0069707681   1.0134447      0.29286031   
      8800   0.0046563383   1.0064622      0.0069810971   1.0134433      0.29285891   
      8900   0.0046152237   1.0065244      0.0069194552   1.0134439      0.29285983   
      9000   0.004670231    1.0064405      0.007001926    1.0134425      0.29286177   
      9100   0.0046801431   1.0064275      0.0070167868   1.0134443      0.29286169   
      9200   0.0047101659   1.0063834      0.007061799    1.0134452      0.29286319   
      9300   0.0047095294   1.0063824      0.0070608448   1.0134433      0.29286292   
      9400   0.0046762482   1.0064353      0.0070109473   1.0134463      0.2928623    
      9500   0.0047065076   1.006392       0.0070563143   1.0134483      0.29286535   
      9600   0.0047597222   1.0063097      0.0071360972   1.0134458      0.29286859   
      9700   0.004700833    1.006396       0.0070478065   1.0134438      0.29286087   
      9800   0.0045974905   1.0065508      0.0068928684   1.0134437      0.29285577   
      9900   0.004501915    1.0066904      0.0067495752   1.01344        0.29284917   
     10000   0.0045500179   1.0066173      0.0068216943   1.013439       0.29284648   
Loop time of 523.132 on 64 procs for 10000 steps with 2048 atoms

Performance: 16515.908 tau/day, 19.116 timesteps/s, 39.149 katom-step/s
5609.6% CPU use with 1 MPI tasks x 64 OpenMP threads

MPI task timing breakdown:
Section |  min time  |  avg time  |  max time  |%varavg| %total
---------------------------------------------------------------
Pair    | 325.12     | 325.12     | 325.12     |   0.0 | 62.15
Neigh   | 4.9868     | 4.9868     | 4.9868     |   0.0 |  0.95
Comm    | 2.2108     | 2.2108     | 2.2108     |   0.0 |  0.42
Output  | 0.65466    | 0.65466    | 0.65466    |   0.0 |  0.13
Modify  | 62.821     | 62.821     | 62.821     |   0.0 | 12.01
Other   |            | 127.3      |            |       | 24.34

Nlocal:           2048 ave        2048 max        2048 min
Histogram: 1 0 0 0 0 0 0 0 0 0
Nghost:          10147 ave       10147 max       10147 min
Histogram: 1 0 0 0 0 0 0 0 0 0
Neighs:         590506 ave      590506 max      590506 min
Histogram: 1 0 0 0 0 0 0 0 0 0

Total # of neighbors = 590506
Ave neighs/atom = 288.33301
Neighbor list builds = 194
Dangerous builds = 0
Total wall time: 0:11:33
