LAMMPS (22 Jul 2025 - Update 3)
KOKKOS mode with Kokkos version 4.6.2 is enabled
  using 64 OpenMP thread(s) per MPI task
package kokkos
# Yukawa OCP: k1_G14 (kappa=1.0, Gamma=14.0)
# Matches hotSpring/barraCuda dsf_pp_cases

package         kokkos
units           lj
atom_style      atomic
boundary        p p p

lattice         fcc 0.238732414637843
Lattice spacing in x,y,z = 2.5588777 2.5588777 2.5588777
region          box block 0 8 0 8 0 8
create_box      1 box
Created orthogonal box = (0 0 0) to (20.471022 20.471022 20.471022)
  1 by 1 by 1 MPI processor grid
create_atoms    1 box
Created 2048 atoms
  using lattice units in orthogonal box = (0 0 0) to (20.471022 20.471022 20.471022)
  create_atoms CPU = 0.042 seconds
mass            1 1.0

pair_style      yukawa 1.0 8.0
pair_coeff      1 1 1.0

velocity        all create 0.07142857142857142 42 dist gaussian

# Equilibration with Berendsen-like thermostat
fix             therm all nvt temp 0.07142857142857142 0.07142857142857142 1.0
timestep        0.01
thermo_style    custom step temp pe ke etotal press
thermo          100

run             2000
Generated 0 of 0 mixed pair_coeff terms from geometric mixing rule
Neighbor list info ...
  update: every = 1 steps, delay = 0 steps, check = yes
  max neighbors/atom: 2000, page size: 100000
  master list distance cutoff = 8.3
  ghost atom cutoff = 8.3
  binsize = 4.15, bins = 5 5 5
  1 neighbor lists, perpetual/occasional/extra = 1 0 0
  (1) pair yukawa/kk, perpetual
      attributes: half, newton on, kokkos_device
      pair build: half/bin/newton/kk/device
      stencil: half/bin/3d
      bin: kk/device
Per MPI rank memory allocation (min/avg/max) = 59.18 | 59.18 | 59.18 Mbytes
   Step          Temp          PotEng         KinEng         TotEng         Press     
         0   0.071428571    0.99911862     0.10709054     1.1062092      0.30803331   
       100   0.043047934    1.0462408      0.064540371    1.1107812      0.30721991   
       200   0.050266781    1.0473958      0.075363355    1.1227592      0.30894614   
       300   0.057866843    1.052036       0.086757882    1.1387939      0.31122412   
       400   0.06346965     1.0601379      0.095157988    1.1552959      0.31370901   
       500   0.071550881    1.0621719      0.10727392     1.1694458      0.31578309   
       600   0.073445859    1.0676031      0.110115       1.1777181      0.31700044   
       700   0.075129578    1.06632        0.11263934     1.1789594      0.3172078    
       800   0.070175559    1.06652        0.10521194     1.1717319      0.31603381   
       900   0.068189141    1.0661768      0.10223377     1.1684105      0.31553749   
      1000   0.070874105    1.067137       0.10625925     1.1733963      0.31627319   
      1100   0.0733444      1.0687985      0.10996288     1.1787614      0.31712818   
      1200   0.073581457    1.0678961      0.11031829     1.1782144      0.31708777   
      1300   0.070531591    1.0673159      0.10574573     1.1730616      0.31625947   
      1400   0.070172278    1.0650732      0.10520702     1.1702802      0.3159197    
      1500   0.070602511    1.0661237      0.10585205     1.1719758      0.31615661   
      1600   0.072149616    1.0674611      0.10817158     1.1756327      0.31667871   
      1700   0.07285287     1.0682767      0.10922595     1.1775027      0.31697293   
      1800   0.071238801    1.069507       0.10680603     1.176313       0.31672109   
      1900   0.071053817    1.0681139      0.10652868     1.1746426      0.31653608   
      2000   0.070348749    1.0693841      0.1054716      1.1748557      0.31650392   
Loop time of 174.097 on 64 procs for 2000 steps with 2048 atoms

Performance: 9925.506 tau/day, 11.488 timesteps/s, 23.527 katom-step/s
5542.0% CPU use with 1 MPI tasks x 64 OpenMP threads

MPI task timing breakdown:
Section |  min time  |  avg time  |  max time  |%varavg| %total
---------------------------------------------------------------
Pair    | 66.38      | 66.38      | 66.38      |   0.0 | 38.13
Neigh   | 3.7469     | 3.7469     | 3.7469     |   0.0 |  2.15
Comm    | 0.46443    | 0.46443    | 0.46443    |   0.0 |  0.27
Output  | 0.12746    | 0.12746    | 0.12746    |   0.0 |  0.07
Modify  | 77.547     | 77.547     | 77.547     |   0.0 | 44.54
Other   |            | 25.83      |            |       | 14.84

Nlocal:           2048 ave        2048 max        2048 min
Histogram: 1 0 0 0 0 0 0 0 0 0
Nghost:          10097 ave       10097 max       10097 min
Histogram: 1 0 0 0 0 0 0 0 0 0
Neighs:         584437 ave      584437 max      584437 min
Histogram: 1 0 0 0 0 0 0 0 0 0

Total # of neighbors = 584437
Ave neighs/atom = 285.36963
Neighbor list builds = 143
Dangerous builds = 0

# Switch to NVE for production
unfix           therm
fix             nve all nve
reset_timestep  0
thermo          100

run             10000
Generated 0 of 0 mixed pair_coeff terms from geometric mixing rule
Per MPI rank memory allocation (min/avg/max) = 59.09 | 59.09 | 59.09 Mbytes
   Step          Temp          PotEng         KinEng         TotEng         Press     
         0   0.070348749    1.0693841      0.1054716      1.1748557      0.31650392   
       100   0.070506583    1.0691499      0.10570823     1.1748582      0.31654364   
       200   0.070572395    1.069058       0.1058069      1.174865       0.31656258   
       300   0.072041545    1.0668458      0.10800955     1.1748554      0.31660198   
       400   0.069984135    1.0699341      0.10492494     1.174859       0.31648002   
       500   0.070385183    1.0693342      0.10552622     1.1748604      0.31650676   
       600   0.070665748    1.0689147      0.10594686     1.1748616      0.3165054    
       700   0.0712233      1.0680774      0.10678279     1.1748602      0.31659472   
       800   0.071286702    1.0679877      0.10687784     1.1748655      0.31655574   
       900   0.071520705    1.0676276      0.10722867     1.1748563      0.31654366   
      1000   0.071011245    1.0683946      0.10646486     1.1748594      0.31657004   
      1100   0.071520245    1.0676309      0.10722799     1.1748589      0.31659643   
      1200   0.072424645    1.066274       0.10858392     1.1748579      0.31660433   
      1300   0.069786379    1.0702378      0.10462846     1.1748663      0.31648616   
      1400   0.070146365    1.0696966      0.10516817     1.1748648      0.31651632   
      1500   0.070676534    1.0688959      0.10596304     1.174859       0.31650435   
      1600   0.070913833    1.068542       0.10631881     1.1748608      0.31653089   
      1700   0.072211951    1.0665957      0.10826504     1.1748607      0.31661671   
      1800   0.07043989     1.0692537      0.10560824     1.1748619      0.31652038   
      1900   0.071165039    1.0681694      0.10669544     1.1748649      0.31653746   
      2000   0.070482886    1.0691889      0.10567271     1.1748616      0.31650221   
      2100   0.071301979    1.0679632      0.10690075     1.174864       0.31656542   
      2200   0.071024755    1.0683742      0.10648511     1.1748593      0.31652403   
      2300   0.071401572    1.0678115      0.10705006     1.1748615      0.31654865   
      2400   0.072341817    1.066394       0.10845974     1.1748538      0.31657793   
      2500   0.070841111    1.0686563      0.10620978     1.1748661      0.31651967   
      2600   0.072040196    1.0668561      0.10800753     1.1748636      0.31655942   
      2700   0.072759661    1.0657736      0.1090862      1.1748598      0.31663252   
      2800   0.071046681    1.0683359      0.10651799     1.1748539      0.31655619   
      2900   0.072369234    1.0663558      0.10850085     1.1748566      0.31661619   
      3000   0.071681951    1.0673897      0.10747042     1.1748601      0.31657333   
      3100   0.071937745    1.0670041      0.10785393     1.174858       0.31656253   
      3200   0.070971652    1.0684522      0.1064055      1.1748577      0.31654459   
      3300   0.071131532    1.068218       0.1066452      1.1748632      0.31653964   
      3400   0.071438133    1.0677569      0.10710488     1.1748617      0.31659296   
      3500   0.069345763    1.0708967      0.10396785     1.1748645      0.31647624   
      3600   0.071729331    1.067317       0.10754146     1.1748585      0.31658479   
      3700   0.071963397    1.0669723      0.10789239     1.1748647      0.31661408   
      3800   0.07079111     1.0687241      0.10613482     1.1748589      0.31652728   
      3900   0.070825025    1.0686808      0.10618566     1.1748665      0.31658771   
      4000   0.070332215    1.0694161      0.10544681     1.1748629      0.31647745   
      4100   0.070144246    1.069695       0.10516499     1.17486        0.31650341   
      4200   0.071329808    1.067919       0.10694247     1.1748614      0.31658757   
      4300   0.071438556    1.0677587      0.10710551     1.1748642      0.31657253   
      4400   0.070497385    1.0691606      0.10569444     1.174855       0.31654392   
      4500   0.069757396    1.0702758      0.104585       1.1748608      0.31652116   
      4600   0.07164488     1.0674497      0.10741485     1.1748645      0.31662996   
      4700   0.069662459    1.0704147      0.10444267     1.1748573      0.31655001   
      4800   0.070604425    1.0690082      0.10585493     1.1748631      0.31656515   
      4900   0.070756843    1.0687791      0.10608344     1.1748625      0.31660879   
      5000   0.070620072    1.0689857      0.10587838     1.1748641      0.3165599    
      5100   0.071962335    1.0669681      0.1078908      1.1748589      0.3165541    
      5200   0.070560648    1.0690701      0.10578929     1.1748594      0.31653889   
      5300   0.071446933    1.0677433      0.10711807     1.1748614      0.31660206   
      5400   0.071314875    1.0679346      0.10692008     1.1748546      0.31662086   
      5500   0.071175075    1.0681485      0.10671048     1.174859       0.31660317   
      5600   0.070893037    1.0685738      0.10628763     1.1748614      0.31656532   
      5700   0.071913701    1.067045       0.10781788     1.1748628      0.3166496    
      5800   0.071341543    1.0679009      0.10696006     1.174861       0.3166014    
      5900   0.07156454     1.067565       0.10729439     1.1748594      0.31662718   
      6000   0.070392275    1.0693213      0.10553686     1.1748581      0.31657592   
      6100   0.071228583    1.0680686      0.10679071     1.1748593      0.31656263   
      6200   0.070921702    1.0685346      0.10633061     1.1748652      0.31654737   
      6300   0.070989786    1.068422       0.10643268     1.1748547      0.31659943   
      6400   0.070081592    1.069784       0.10507106     1.1748551      0.31651829   
      6500   0.070545147    1.0690956      0.10576605     1.1748617      0.31654207   
      6600   0.071162017    1.0681657      0.1066909      1.1748566      0.31656732   
      6700   0.070994968    1.0684159      0.10644045     1.1748563      0.31656111   
      6800   0.071128269    1.0682225      0.10664031     1.1748628      0.31658747   
      6900   0.072135892    1.066706       0.108151       1.174857       0.3166177    
      7000   0.071296748    1.0679639      0.1068929      1.1748568      0.31661476   
      7100   0.071105751    1.0682543      0.10660655     1.1748608      0.3165869    
      7200   0.070808454    1.0687006      0.10616082     1.1748615      0.31652052   
      7300   0.07098529     1.0684354      0.10642594     1.1748613      0.31658656   
      7400   0.071696471    1.0673699      0.10749219     1.174862       0.31666016   
      7500   0.07193015     1.0670166      0.10784254     1.1748591      0.31661711   
      7600   0.071332454    1.0679103      0.10694644     1.1748567      0.31653846   
      7700   0.071181633    1.0681364      0.10672031     1.1748567      0.31657786   
      7800   0.071342339    1.0679032      0.10696126     1.1748644      0.31659883   
      7900   0.071169672    1.0681602      0.10670238     1.1748626      0.31661855   
      8000   0.071393254    1.0678222      0.10703759     1.1748598      0.31661738   
      8100   0.070623385    1.0689778      0.10588335     1.1748612      0.31659559   
      8200   0.071594458    1.0675213      0.10733925     1.1748605      0.31657765   
      8300   0.071092871    1.0682711      0.10658724     1.1748583      0.31656523   
      8400   0.071526054    1.0676219      0.10723669     1.1748586      0.31663451   
      8500   0.07308503     1.065289       0.10957402     1.174863       0.31664107   
      8600   0.069902267    1.0700597      0.1048022      1.1748619      0.31654916   
      8700   0.071823789    1.0671819      0.10768308     1.1748649      0.31660856   
      8800   0.071686421    1.0673865      0.10747713     1.1748636      0.31658333   
      8900   0.072126774    1.0667268      0.10813733     1.1748641      0.31662546   
      9000   0.070436231    1.0692565      0.10560276     1.1748592      0.31653401   
      9100   0.070606031    1.0690027      0.10585733     1.17486        0.31654108   
      9200   0.070881262    1.0685884      0.10626998     1.1748584      0.31653488   
      9300   0.070926118    1.0685209      0.10633723     1.1748581      0.31658861   
      9400   0.070583241    1.0690427      0.10582316     1.1748658      0.31655892   
      9500   0.070616735    1.0689844      0.10587338     1.1748578      0.31653937   
      9600   0.071580585    1.0675456      0.10731845     1.174864       0.31661059   
      9700   0.071348238    1.067889       0.1069701      1.1748591      0.31659228   
      9800   0.071477463    1.0676961      0.10716384     1.17486        0.31658257   
      9900   0.070626416    1.0689745      0.1058879      1.1748624      0.3165197    
     10000   0.071948467    1.0669907      0.10787        1.1748607      0.31662731   
Loop time of 543.49 on 64 procs for 10000 steps with 2048 atoms

Performance: 15897.257 tau/day, 18.400 timesteps/s, 37.682 katom-step/s
5573.0% CPU use with 1 MPI tasks x 64 OpenMP threads

MPI task timing breakdown:
Section |  min time  |  avg time  |  max time  |%varavg| %total
---------------------------------------------------------------
Pair    | 329.56     | 329.56     | 329.56     |   0.0 | 60.64
Neigh   | 19.379     | 19.379     | 19.379     |   0.0 |  3.57
Comm    | 2.383      | 2.383      | 2.383      |   0.0 |  0.44
Output  | 0.65482    | 0.65482    | 0.65482    |   0.0 |  0.12
Modify  | 63.397     | 63.397     | 63.397     |   0.0 | 11.66
Other   |            | 128.1      |            |       | 23.57

Nlocal:           2048 ave        2048 max        2048 min
Histogram: 1 0 0 0 0 0 0 0 0 0
Nghost:          10120 ave       10120 max       10120 min
Histogram: 1 0 0 0 0 0 0 0 0 0
Neighs:         584217 ave      584217 max      584217 min
Histogram: 1 0 0 0 0 0 0 0 0 0

Total # of neighbors = 584217
Ave neighs/atom = 285.26221
Neighbor list builds = 749
Dangerous builds = 0
Total wall time: 0:11:58
