LAMMPS (22 Jul 2025 - Update 3)
KOKKOS mode with Kokkos version 4.6.2 is enabled
  using 64 OpenMP thread(s) per MPI task
package kokkos
# Yukawa OCP: k2_G476 (kappa=2.0, Gamma=476.0)
# Matches hotSpring/barraCuda dsf_pp_cases

package         kokkos
units           lj
atom_style      atomic
boundary        p p p

lattice         fcc 0.238732414637843
Lattice spacing in x,y,z = 2.5588777 2.5588777 2.5588777
region          box block 0 8 0 8 0 8
create_box      1 box
Created orthogonal box = (0 0 0) to (20.471022 20.471022 20.471022)
  1 by 1 by 1 MPI processor grid
create_atoms    1 box
Created 2048 atoms
  using lattice units in orthogonal box = (0 0 0) to (20.471022 20.471022 20.471022)
  create_atoms CPU = 0.051 seconds
mass            1 1.0

pair_style      yukawa 2.0 6.5
pair_coeff      1 1 1.0

velocity        all create 0.0021008403361344537 42 dist gaussian

# Equilibration with Berendsen-like thermostat
fix             therm all nvt temp 0.0021008403361344537 0.0021008403361344537 1.0
timestep        0.01
thermo_style    custom step temp pe ke etotal press
thermo          100

run             2000
Generated 0 of 0 mixed pair_coeff terms from geometric mixing rule
Neighbor list info ...
  update: every = 1 steps, delay = 0 steps, check = yes
  max neighbors/atom: 2000, page size: 100000
  master list distance cutoff = 6.8
  ghost atom cutoff = 6.8
  binsize = 3.4, bins = 7 7 7
  1 neighbor lists, perpetual/occasional/extra = 1 0 0
  (1) pair yukawa/kk, perpetual
      attributes: half, newton on, kokkos_device
      pair build: half/bin/newton/kk/device
      stencil: half/bin/3d
      bin: kk/device
Per MPI rank memory allocation (min/avg/max) = 59.02 | 59.02 | 59.02 Mbytes
   Step          Temp          PotEng         KinEng         TotEng         Press     
         0   0.0021008403   0.10590299     0.0031497218   0.10905271     0.042754028  
       100   0.0016602463   0.10667479     0.0024891535   0.10916395     0.042837106  
       200   0.0010042361   0.10795114     0.0015056186   0.10945676     0.042978619  
       300   0.001035064    0.10827225     0.0015518378   0.10982409     0.043046252  
       400   0.0014823652   0.10811307     0.0022224621   0.11033553     0.043099861  
       500   0.0014823909   0.10868238     0.0022225006   0.11090488     0.043232269  
       600   0.0013926142   0.10938487     0.0020879013   0.11147277     0.043383443  
       700   0.001917787    0.1092183      0.0028752758   0.11209358     0.043470157  
       800   0.0023333987   0.10901509     0.0034983891   0.11251348     0.043514238  
       900   0.0019148358   0.1095326      0.0028708513   0.11240345     0.043533121  
      1000   0.0018711628   0.1098533      0.0028053738   0.11265868     0.043599439  
      1100   0.002312616    0.10965206     0.0034672302   0.11311929     0.04365643   
      1200   0.0021952609   0.10969301     0.0032912835   0.1129843      0.043635039  
      1300   0.0018746408   0.10992106     0.0028105882   0.11273165     0.04361173   
      1400   0.002113782    0.10980637     0.0031691249   0.11297549     0.043643301  
      1500   0.0023208609   0.10964139     0.0034795915   0.11312098     0.043654946  
      1600   0.002034754    0.10973087     0.0030506407   0.11278151     0.043607543  
      1700   0.0019568546   0.10974815     0.0029338486   0.112682       0.04359185   
      1800   0.0021661228   0.10966082     0.0032475977   0.11290842     0.043621129  
      1900   0.0021774557   0.109714       0.0032645887   0.11297859     0.043638253  
      2000   0.0020797681   0.10972819     0.0031181288   0.11284632     0.04361974   
Loop time of 171.996 on 64 procs for 2000 steps with 2048 atoms

Performance: 10046.746 tau/day, 11.628 timesteps/s, 23.815 katom-step/s
5532.7% CPU use with 1 MPI tasks x 64 OpenMP threads

MPI task timing breakdown:
Section |  min time  |  avg time  |  max time  |%varavg| %total
---------------------------------------------------------------
Pair    | 66.438     | 66.438     | 66.438     |   0.0 | 38.63
Neigh   | 0.62706    | 0.62706    | 0.62706    |   0.0 |  0.36
Comm    | 0.35732    | 0.35732    | 0.35732    |   0.0 |  0.21
Output  | 0.13289    | 0.13289    | 0.13289    |   0.0 |  0.08
Modify  | 78.418     | 78.418     | 78.418     |   0.0 | 45.59
Other   |            | 26.02      |            |       | 15.13

Nlocal:           2048 ave        2048 max        2048 min
Histogram: 1 0 0 0 0 0 0 0 0 0
Nghost:           7711 ave        7711 max        7711 min
Histogram: 1 0 0 0 0 0 0 0 0 0
Neighs:         325028 ave      325028 max      325028 min
Histogram: 1 0 0 0 0 0 0 0 0 0

Total # of neighbors = 325028
Ave neighs/atom = 158.70508
Neighbor list builds = 24
Dangerous builds = 0

# Switch to NVE for production
unfix           therm
fix             nve all nve
reset_timestep  0
thermo          100

run             10000
Generated 0 of 0 mixed pair_coeff terms from geometric mixing rule
Per MPI rank memory allocation (min/avg/max) = 59.02 | 59.02 | 59.02 Mbytes
   Step          Temp          PotEng         KinEng         TotEng         Press     
         0   0.0020797681   0.10972819     0.0031181288   0.11284632     0.04361974   
       100   0.002191672    0.10956042     0.0032859027   0.11284632     0.04360608   
       200   0.002219422    0.10951881     0.0033275075   0.11284632     0.04360184   
       300   0.0021332552   0.10964801     0.0031983204   0.11284633     0.043612758  
       400   0.0021405327   0.1096371      0.0032092313   0.11284633     0.04361348   
       500   0.0022047191   0.10954087     0.0033054639   0.11284633     0.043605229  
       600   0.0021640678   0.10960183     0.0032445167   0.11284634     0.043607907  
       700   0.002122581    0.10966403     0.0031823169   0.11284635     0.043613351  
       800   0.0021752446   0.10958508     0.0032612737   0.11284636     0.043609224  
       900   0.0022079821   0.10953599     0.003310356    0.11284635     0.043605774  
      1000   0.0021833465   0.10957295     0.0032734206   0.11284637     0.043608147  
      1100   0.0021991843   0.10954921     0.0032971658   0.11284638     0.043606382  
      1200   0.0022706136   0.10944213     0.0034042574   0.11284639     0.043598364  
      1300   0.0022919724   0.1094101      0.0034362799   0.11284638     0.043595599  
      1400   0.0022494603   0.10947382     0.0033725429   0.11284637     0.04360059   
      1500   0.0022311623   0.10950127     0.0033451093   0.11284638     0.043603308  
      1600   0.0022440971   0.10948188     0.003364502    0.11284639     0.043602031  
      1700   0.0022507498   0.10947191     0.0033744763   0.11284639     0.043601359  
      1800   0.002241543    0.10948571     0.0033606728   0.11284638     0.043601954  
      1900   0.0022311892   0.10950127     0.0033451496   0.11284642     0.043603135  
      2000   0.0022291775   0.10950426     0.0033421336   0.11284639     0.043605159  
      2100   0.0022167589   0.10952289     0.0033235148   0.1128464      0.043607624  
      2200   0.0022080751   0.10953591     0.0033104955   0.11284641     0.043607254  
      2300   0.0022184992   0.10952027     0.0033261239   0.11284639     0.04360405   
      2400   0.0022117519   0.10953039     0.0033160079   0.1128464      0.043604164  
      2500   0.0021804349   0.10957733     0.0032690554   0.11284639     0.043608842  
      2600   0.0021915115   0.10956072     0.0032856622   0.11284638     0.043608945  
      2700   0.0022511129   0.10947138     0.0033750206   0.1128464      0.043602144  
      2800   0.0022785031   0.1094303      0.0034160858   0.11284639     0.043599026  
      2900   0.0022262947   0.10950857     0.0033378114   0.11284638     0.043605048  
      3000   0.0021711242   0.10959129     0.0032550961   0.11284639     0.043609982  
      3100   0.00219662     0.10955305     0.0032933211   0.11284638     0.043605512  
      3200   0.002241119    0.10948634     0.0033600371   0.11284638     0.043601105  
      3300   0.0022133532   0.10952796     0.0033184087   0.11284637     0.043605811  
      3400   0.0021758109   0.10958422     0.0032621228   0.11284634     0.043611328  
      3500   0.0021798493   0.10957817     0.0032681774   0.11284635     0.043610689  
      3600   0.0021966176   0.10955304     0.0032933176   0.11284636     0.043607965  
      3700   0.002200438    0.1095473      0.0032990453   0.11284635     0.043607587  
      3800   0.0021924788   0.10955922     0.0032871124   0.11284633     0.04360858   
      3900   0.0022075142   0.10953669     0.0033096544   0.11284634     0.043607066  
      4000   0.0022301615   0.10950274     0.0033436089   0.11284635     0.04360505   
      4100   0.0022154291   0.10952484     0.003321521    0.11284636     0.043605989  
      4200   0.0021680471   0.10959587     0.0032504827   0.11284635     0.043609768  
      4300   0.0021386904   0.10963989     0.0032064692   0.11284636     0.043613375  
      4400   0.0021785416   0.10958017     0.0032662168   0.11284639     0.043610595  
      4500   0.0022425533   0.10948421     0.0033621874   0.11284639     0.043603738  
      4600   0.0022375364   0.10949172     0.0033546657   0.11284639     0.043603203  
      4700   0.0021926472   0.10955899     0.0032873649   0.11284636     0.04360788   
      4800   0.0021925471   0.10955913     0.0032872148   0.11284635     0.043608164  
      4900   0.0022181438   0.10952076     0.0033255911   0.11284635     0.043605045  
      5000   0.0022207549   0.10951685     0.0033295058   0.11284635     0.043604722  
      5100   0.002208195    0.10953565     0.0033106752   0.11284633     0.0436065    
      5200   0.0022112279   0.10953111     0.0033152223   0.11284633     0.043605683  
      5300   0.0022414422   0.10948579     0.0033605216   0.11284631     0.043602126  
      5400   0.0022366384   0.10949299     0.0033533194   0.11284631     0.043602127  
      5500   0.0022075308   0.10953665     0.0033096793   0.11284633     0.043605039  
      5600   0.0021995411   0.10954861     0.0032977007   0.11284631     0.043606039  
      5700   0.0021791865   0.10957912     0.0032671837   0.1128463      0.043607759  
      5800   0.0021747049   0.10958585     0.0032604646   0.11284631     0.043608926  
      5900   0.0021945685   0.10955605     0.0032902453   0.1128463      0.043607814  
      6000   0.0021930453   0.10955833     0.0032879617   0.11284629     0.043608467  
      6100   0.0021628851   0.10960356     0.0032427435   0.1128463      0.043611314  
      6200   0.0021781033   0.10958072     0.0032655596   0.11284628     0.043609412  
      6300   0.0022508013   0.10947174     0.0033745535   0.11284629     0.043602684  
      6400   0.0022682596   0.10944557     0.0034007281   0.1128463      0.04360118   
      6500   0.002230849    0.10950168     0.0033446396   0.11284632     0.043604822  
      6600   0.002229412    0.10950383     0.0033424852   0.11284631     0.043604565  
      6700   0.0022676357   0.1094465      0.0033997927   0.11284629     0.043600104  
      6800   0.0022761471   0.10943375     0.0034125535   0.11284631     0.04359944   
      6900   0.0022383771   0.10949036     0.0033559262   0.11284628     0.043603148  
      7000   0.0022336095   0.10949752     0.0033487783   0.1128463      0.043603434  
      7100   0.0022520611   0.10946987     0.0033764422   0.11284632     0.04360179   
      7200   0.0022462647   0.10947858     0.0033677519   0.11284633     0.043602623  
      7300   0.0022386178   0.10949006     0.0033562871   0.11284634     0.043603659  
      7400   0.0022561662   0.10946373     0.0033825968   0.11284633     0.043602465  
      7500   0.0022788558   0.10942972     0.0034166146   0.11284633     0.043600647  
      7600   0.0022896923   0.1094135      0.0034328614   0.11284636     0.04360015   
      7700   0.002286837    0.10941776     0.0034285806   0.11284634     0.043601043  
      7800   0.0022614837   0.10945575     0.0033905692   0.11284632     0.043603812  
      7900   0.0022537235   0.10946738     0.0033789346   0.11284632     0.043605199  
      8000   0.0022543762   0.10946642     0.0033799131   0.11284634     0.043604702  
      8100   0.0022295797   0.10950359     0.0033427365   0.11284633     0.043606261  
      8200   0.002207367    0.10953688     0.0033094338   0.11284631     0.043608623  
      8300   0.0021899582   0.10956295     0.0032833334   0.11284629     0.043609969  
      8400   0.0022079034   0.10953606     0.003310238    0.1128463      0.043607189  
      8500   0.002256301    0.10946353     0.003382799    0.11284633     0.043601107  
      8600   0.0022562404   0.1094636      0.0033827081   0.11284631     0.043600399  
      8700   0.0022281771   0.10950568     0.0033406337   0.11284632     0.043604902  
      8800   0.0022026653   0.10954393     0.0033023847   0.11284631     0.043608719  
      8900   0.002200867    0.1095466      0.0032996886   0.11284628     0.043608288  
      9000   0.0022365122   0.10949318     0.0033531303   0.11284631     0.043604501  
      9100   0.002256677    0.10946293     0.0033833627   0.1128463      0.043603401  
      9200   0.0022375258   0.10949164     0.0033546499   0.11284629     0.043606046  
      9300   0.0022187872   0.10951974     0.0033265557   0.11284629     0.043607149  
      9400   0.0022049866   0.10954045     0.0033058649   0.11284631     0.043607143  
      9500   0.002196845    0.10955264     0.0032936585   0.1128463      0.043608257  
      9600   0.0021831566   0.10957314     0.0032731359   0.11284627     0.043609879  
      9700   0.0021774114   0.10958176     0.0032645224   0.11284628     0.043610048  
      9800   0.0021946513   0.1095559      0.0032903695   0.11284627     0.043609096  
      9900   0.0021962677   0.10955349     0.003292793    0.11284628     0.043609495  
     10000   0.0022022267   0.10954455     0.003301727    0.11284627     0.043607777  
Loop time of 526.448 on 64 procs for 10000 steps with 2048 atoms

Performance: 16411.878 tau/day, 18.995 timesteps/s, 38.902 katom-step/s
5606.6% CPU use with 1 MPI tasks x 64 OpenMP threads

MPI task timing breakdown:
Section |  min time  |  avg time  |  max time  |%varavg| %total
---------------------------------------------------------------
Pair    | 328.76     | 328.76     | 328.76     |   0.0 | 62.45
Neigh   | 3.4988     | 3.4988     | 3.4988     |   0.0 |  0.66
Comm    | 1.7334     | 1.7334     | 1.7334     |   0.0 |  0.33
Output  | 0.63332    | 0.63332    | 0.63332    |   0.0 |  0.12
Modify  | 63.357     | 63.357     | 63.357     |   0.0 | 12.03
Other   |            | 128.5      |            |       | 24.40

Nlocal:           2048 ave        2048 max        2048 min
Histogram: 1 0 0 0 0 0 0 0 0 0
Nghost:           7749 ave        7749 max        7749 min
Histogram: 1 0 0 0 0 0 0 0 0 0
Neighs:         326970 ave      326970 max      326970 min
Histogram: 1 0 0 0 0 0 0 0 0 0

Total # of neighbors = 326970
Ave neighs/atom = 159.65332
Neighbor list builds = 135
Dangerous builds = 0
Total wall time: 0:11:39
