LAMMPS (22 Jul 2025 - Update 3)
KOKKOS mode with Kokkos version 4.6.2 is enabled
  using 64 OpenMP thread(s) per MPI task
package kokkos
# Yukawa OCP: k1_G72 (kappa=1.0, Gamma=72.0)
# Matches hotSpring/barraCuda dsf_pp_cases

package         kokkos
units           lj
atom_style      atomic
boundary        p p p

lattice         fcc 0.238732414637843
Lattice spacing in x,y,z = 2.5588777 2.5588777 2.5588777
region          box block 0 8 0 8 0 8
create_box      1 box
Created orthogonal box = (0 0 0) to (20.471022 20.471022 20.471022)
  1 by 1 by 1 MPI processor grid
create_atoms    1 box
Created 2048 atoms
  using lattice units in orthogonal box = (0 0 0) to (20.471022 20.471022 20.471022)
  create_atoms CPU = 0.041 seconds
mass            1 1.0

pair_style      yukawa 1.0 8.0
pair_coeff      1 1 1.0

velocity        all create 0.013888888888888888 42 dist gaussian

# Equilibration with Berendsen-like thermostat
fix             therm all nvt temp 0.013888888888888888 0.013888888888888888 1.0
timestep        0.01
thermo_style    custom step temp pe ke etotal press
thermo          100

run             2000
Generated 0 of 0 mixed pair_coeff terms from geometric mixing rule
Neighbor list info ...
  update: every = 1 steps, delay = 0 steps, check = yes
  max neighbors/atom: 2000, page size: 100000
  master list distance cutoff = 8.3
  ghost atom cutoff = 8.3
  binsize = 4.15, bins = 5 5 5
  1 neighbor lists, perpetual/occasional/extra = 1 0 0
  (1) pair yukawa/kk, perpetual
      attributes: half, newton on, kokkos_device
      pair build: half/bin/newton/kk/device
      stencil: half/bin/3d
      bin: kk/device
Per MPI rank memory allocation (min/avg/max) = 59.18 | 59.18 | 59.18 Mbytes
   Step          Temp          PotEng         KinEng         TotEng         Press     
         0   0.013888889    0.99911862     0.020823161    1.0199418      0.29430343   
       100   0.0081673992   1.0084398      0.012245117    1.0206849      0.29405121   
       200   0.0073234797   1.0117368      0.010979856    1.0227167      0.29416823   
       300   0.008875112    1.0125449      0.013306168    1.0258511      0.29457998   
       400   0.0079518618   1.0171246      0.011921969    1.0290466      0.29498367   
       500   0.012108337    1.0147492      0.018153637    1.0329028      0.29562191   
       600   0.01150843     1.0192982      0.017254215    1.0365524      0.29607367   
       700   0.01371741     1.0197116      0.020566068    1.0402776      0.29665038   
       800   0.014100584    1.0213475      0.021140548    1.042488       0.29692334   
       900   0.014045094    1.0226916      0.021057354    1.043749       0.29709354   
      1000   0.014808255    1.021931       0.022201537    1.0441325      0.29716255   
      1100   0.013238791    1.0227999      0.01984849     1.0426483      0.29689658   
      1200   0.013810801    1.0218207      0.020706086    1.0425267      0.29691294   
      1300   0.013680527    1.022421       0.020510771    1.0429318      0.29696634   
      1400   0.013908608    1.0229181      0.020852726    1.0437708      0.29707752   
      1500   0.014353289    1.0229604      0.02151942     1.0444798      0.29717889   
      1600   0.013998238    1.0230197      0.020987104    1.0440068      0.29711566   
      1700   0.013605209    1.022831       0.020397848    1.0432288      0.29699781   
      1800   0.013480157    1.0230277      0.020210363    1.043238       0.29698332   
      1900   0.013966391    1.0233454      0.020939357    1.0442848      0.29713325   
      2000   0.014590891    1.0230075      0.02187565     1.0448832      0.29723705   
Loop time of 169.028 on 64 procs for 2000 steps with 2048 atoms

Performance: 10223.157 tau/day, 11.832 timesteps/s, 24.233 katom-step/s
5572.9% CPU use with 1 MPI tasks x 64 OpenMP threads

MPI task timing breakdown:
Section |  min time  |  avg time  |  max time  |%varavg| %total
---------------------------------------------------------------
Pair    | 65.014     | 65.014     | 65.014     |   0.0 | 38.46
Neigh   | 1.6459     | 1.6459     | 1.6459     |   0.0 |  0.97
Comm    | 0.45331    | 0.45331    | 0.45331    |   0.0 |  0.27
Output  | 0.13189    | 0.13189    | 0.13189    |   0.0 |  0.08
Modify  | 76.534     | 76.534     | 76.534     |   0.0 | 45.28
Other   |            | 25.25      |            |       | 14.94

Nlocal:           2048 ave        2048 max        2048 min
Histogram: 1 0 0 0 0 0 0 0 0 0
Nghost:          10086 ave       10086 max       10086 min
Histogram: 1 0 0 0 0 0 0 0 0 0
Neighs:         584577 ave      584577 max      584577 min
Histogram: 1 0 0 0 0 0 0 0 0 0

Total # of neighbors = 584577
Ave neighs/atom = 285.43799
Neighbor list builds = 63
Dangerous builds = 0

# Switch to NVE for production
unfix           therm
fix             nve all nve
reset_timestep  0
thermo          100

run             10000
Generated 0 of 0 mixed pair_coeff terms from geometric mixing rule
Per MPI rank memory allocation (min/avg/max) = 59.09 | 59.09 | 59.09 Mbytes
   Step          Temp          PotEng         KinEng         TotEng         Press     
         0   0.014590891    1.0230075      0.02187565     1.0448832      0.29723705   
       100   0.014145077    1.0236802      0.021207255    1.0448875      0.29722477   
       200   0.014200242    1.0235974      0.021289963    1.0448874      0.29723233   
       300   0.014446727    1.0232285      0.021659509    1.044888       0.29722635   
       400   0.013991356    1.0239102      0.020976787    1.044887       0.29722094   
       500   0.014278568    1.0234814      0.021407394    1.0448888      0.29723159   
       600   0.01450153     1.0231511      0.021741674    1.0448927      0.29722999   
       700   0.013781071    1.024232       0.020661513    1.0448935      0.29721708   
       800   0.014384726    1.023325       0.021566553    1.0448915      0.29722683   
       900   0.014147037    1.0236832      0.021210194    1.0448934      0.29721108   
      1000   0.014262581    1.0235124      0.021383425    1.0448958      0.29724125   
      1100   0.01447818     1.023187       0.021706665    1.0448937      0.29724658   
      1200   0.01404017     1.0238418      0.021049972    1.0448918      0.29721521   
      1300   0.014460354    1.0232158      0.021679941    1.0448957      0.2972396    
      1400   0.014060464    1.0238182      0.021080398    1.0448986      0.2972254    
      1500   0.014285843    1.0234756      0.021418302    1.0448939      0.29723896   
      1600   0.014498562    1.0231573      0.021737223    1.0448946      0.29724276   
      1700   0.014194411    1.0236128      0.021281221    1.044894       0.29722592   
      1800   0.014025171    1.0238662      0.021027484    1.0448937      0.29722402   
      1900   0.014261487    1.0235146      0.021381784    1.0448964      0.29723908   
      2000   0.014377256    1.0233406      0.021555353    1.0448959      0.29724658   
      2100   0.014594279    1.0230169      0.021880729    1.0448976      0.29726119   
      2200   0.014339402    1.0233985      0.0214986      1.0448971      0.29723827   
      2300   0.014341104    1.0233933      0.021501153    1.0448945      0.29724071   
      2400   0.014296864    1.0234607      0.021434825    1.0448956      0.29723904   
      2500   0.014415663    1.0232814      0.021612936    1.0448943      0.29724974   
      2600   0.01430502     1.0234501      0.021447053    1.0448972      0.29724658   
      2700   0.014343677    1.0233848      0.02150501     1.0448898      0.29723612   
      2800   0.014522185    1.0231191      0.021772641    1.0448918      0.29724298   
      2900   0.014273362    1.0234903      0.021399589    1.0448899      0.29722118   
      3000   0.014269935    1.0235004      0.02139445     1.0448949      0.29724841   
      3100   0.014201411    1.0236002      0.021291715    1.0448919      0.2972415    
      3200   0.014555691    1.0230711      0.021822876    1.044894       0.29725616   
      3300   0.01397865     1.0239347      0.020957737    1.0448925      0.29722762   
      3400   0.014439256    1.0232473      0.021648309    1.0448956      0.29724539   
      3500   0.014132694    1.0237041      0.021188691    1.0448927      0.29723622   
      3600   0.014085829    1.0237736      0.021118427    1.044892       0.29723005   
      3700   0.014563906    1.0230548      0.021835191    1.04489        0.29724345   
      3800   0.014417603    1.0232803      0.021615845    1.0448962      0.29724916   
      3900   0.014372901    1.0233436      0.021548824    1.0448924      0.2972434    
      4000   0.014337768    1.0233951      0.02149615     1.0448913      0.2972328    
      4100   0.014314414    1.0234319      0.021461136    1.0448931      0.29723515   
      4200   0.014128382    1.0237094      0.021182224    1.0448916      0.29722696   
      4300   0.014512511    1.0231345      0.021758137    1.0448927      0.29724752   
      4400   0.014382806    1.0233265      0.021563674    1.0448902      0.29724922   
      4500   0.014069892    1.023798       0.021094532    1.0448925      0.29722571   
      4600   0.014050051    1.0238267      0.021064786    1.0448915      0.2972188    
      4700   0.014046881    1.023833       0.021060034    1.0448931      0.29723438   
      4800   0.014451879    1.0232327      0.021667234    1.0448999      0.2972528    
      4900   0.014298529    1.0234621      0.02143732     1.0448995      0.29723834   
      5000   0.014184216    1.02363        0.021265935    1.044896       0.29723944   
      5100   0.014093529    1.0237695      0.021129971    1.0448995      0.29723707   
      5200   0.014392349    1.0233217      0.021577982    1.0448997      0.29724485   
      5300   0.014443947    1.0232434      0.021655342    1.0448988      0.29724088   
      5400   0.014329921    1.0234095      0.021484386    1.0448939      0.29723084   
      5500   0.01390407     1.0240545      0.020845922    1.0449004      0.29722755   
      5600   0.014190509    1.0236212      0.02127537     1.0448966      0.29722942   
      5700   0.014173954    1.0236458      0.02125055     1.0448964      0.2972216    
      5800   0.014166774    1.0236515      0.021239785    1.0448913      0.29722932   
      5900   0.014616245    1.0229735      0.021913662    1.0448871      0.29724609   
      6000   0.014030536    1.0238589      0.021035527    1.0448945      0.29722295   
      6100   0.014379074    1.0233361      0.02155808     1.0448941      0.29724107   
      6200   0.014530143    1.0231087      0.021784572    1.0448932      0.29724476   
      6300   0.014014526    1.0238809      0.021011524    1.0448924      0.29721948   
      6400   0.014136763    1.0237023      0.02119479     1.0448971      0.29722135   
      6500   0.014214553    1.0235819      0.021311418    1.0448933      0.29723137   
      6600   0.014066782    1.0238023      0.021089871    1.0448921      0.2972223    
      6700   0.014047135    1.0238258      0.021060414    1.0448862      0.29721208   
      6800   0.014249188    1.0235226      0.021363346    1.044886       0.2972343    
      6900   0.014278069    1.0234839      0.021406646    1.0448905      0.2972405    
      7000   0.014408673    1.0232884      0.021602456    1.0448908      0.29723818   
      7100   0.014271277    1.023497       0.021396463    1.0448935      0.29723823   
      7200   0.014301076    1.0234488      0.021441139    1.0448899      0.29723194   
      7300   0.014129375    1.0237071      0.021183714    1.0448908      0.29721737   
      7400   0.014206809    1.0235913      0.021299807    1.0448911      0.2972323    
      7500   0.014133777    1.0237006      0.021190314    1.0448909      0.29724089   
      7600   0.014460253    1.0232148      0.021679789    1.0448946      0.29725135   
      7700   0.014555841    1.0230734      0.0218231      1.0448965      0.2972529    
      7800   0.01438681     1.0233258      0.021569678    1.0448955      0.29724512   
      7900   0.014129493    1.02371        0.02118389     1.0448939      0.29722905   
      8000   0.014044501    1.0238358      0.021056465    1.0448923      0.29722603   
      8100   0.014293483    1.0234622      0.021429756    1.044892       0.29723753   
      8200   0.014258125    1.0235179      0.021376744    1.0448946      0.29723858   
      8300   0.014184593    1.023626       0.0212665      1.0448925      0.29724025   
      8400   0.014052227    1.0238255      0.021068049    1.0448935      0.29723882   
      8500   0.014348786    1.0233835      0.021512669    1.0448962      0.2972477    
      8600   0.014157825    1.0236682      0.021226368    1.0448946      0.29722461   
      8700   0.014526659    1.0231156      0.02177935     1.044895       0.29724574   
      8800   0.014586644    1.0230244      0.021869282    1.0448937      0.2972572    
      8900   0.014200731    1.0236037      0.021290695    1.0448943      0.29723391   
      9000   0.014273056    1.0234941      0.021399129    1.0448932      0.29723276   
      9100   0.014214727    1.0235824      0.021311679    1.044894       0.29722793   
      9200   0.014469214    1.0232027      0.021693223    1.044896       0.29724184   
      9300   0.014456716    1.0232198      0.021674485    1.0448943      0.29724115   
      9400   0.013993248    1.0239133      0.020979623    1.044893       0.29722406   
      9500   0.014394016    1.0233115      0.021580482    1.044892       0.29725469   
      9600   0.014481141    1.0231823      0.021711105    1.0448934      0.29724355   
      9700   0.014146808    1.0236816      0.02120985     1.0448914      0.29722165   
      9800   0.014494605    1.0231632      0.021731292    1.0448944      0.2972442    
      9900   0.014326314    1.0234186      0.021478978    1.0448976      0.29724361   
     10000   0.014377382    1.0233426      0.021555543    1.0448982      0.29724249   
Loop time of 526.899 on 64 procs for 10000 steps with 2048 atoms

Performance: 16397.830 tau/day, 18.979 timesteps/s, 38.869 katom-step/s
5540.7% CPU use with 1 MPI tasks x 64 OpenMP threads

MPI task timing breakdown:
Section |  min time  |  avg time  |  max time  |%varavg| %total
---------------------------------------------------------------
Pair    | 325.53     | 325.53     | 325.53     |   0.0 | 61.78
Neigh   | 8.9213     | 8.9213     | 8.9213     |   0.0 |  1.69
Comm    | 2.2365     | 2.2365     | 2.2365     |   0.0 |  0.42
Output  | 0.64199    | 0.64199    | 0.64199    |   0.0 |  0.12
Modify  | 62.771     | 62.771     | 62.771     |   0.0 | 11.91
Other   |            | 126.8      |            |       | 24.07

Nlocal:           2048 ave        2048 max        2048 min
Histogram: 1 0 0 0 0 0 0 0 0 0
Nghost:          10118 ave       10118 max       10118 min
Histogram: 1 0 0 0 0 0 0 0 0 0
Neighs:         584771 ave      584771 max      584771 min
Histogram: 1 0 0 0 0 0 0 0 0 0

Total # of neighbors = 584771
Ave neighs/atom = 285.53271
Neighbor list builds = 344
Dangerous builds = 0
Total wall time: 0:11:36
