LAMMPS (22 Jul 2025 - Update 3)
KOKKOS mode with Kokkos version 4.6.2 is enabled
  using 64 OpenMP thread(s) per MPI task
package kokkos
# Yukawa OCP: k3_G503 (kappa=3.0, Gamma=503.0)
# Matches hotSpring/barraCuda dsf_pp_cases

package         kokkos
units           lj
atom_style      atomic
boundary        p p p

lattice         fcc 0.238732414637843
Lattice spacing in x,y,z = 2.5588777 2.5588777 2.5588777
region          box block 0 8 0 8 0 8
create_box      1 box
Created orthogonal box = (0 0 0) to (20.471022 20.471022 20.471022)
  1 by 1 by 1 MPI processor grid
create_atoms    1 box
Created 2048 atoms
  using lattice units in orthogonal box = (0 0 0) to (20.471022 20.471022 20.471022)
  create_atoms CPU = 0.042 seconds
mass            1 1.0

pair_style      yukawa 3.0 6.0
pair_coeff      1 1 1.0

velocity        all create 0.0019880715705765406 42 dist gaussian

# Equilibration with Berendsen-like thermostat
fix             therm all nvt temp 0.0019880715705765406 0.0019880715705765406 1.0
timestep        0.01
thermo_style    custom step temp pe ke etotal press
thermo          100

run             2000
Generated 0 of 0 mixed pair_coeff terms from geometric mixing rule
Neighbor list info ...
  update: every = 1 steps, delay = 0 steps, check = yes
  max neighbors/atom: 2000, page size: 100000
  master list distance cutoff = 6.3
  ghost atom cutoff = 6.3
  binsize = 3.15, bins = 7 7 7
  1 neighbor lists, perpetual/occasional/extra = 1 0 0
  (1) pair yukawa/kk, perpetual
      attributes: half, newton on, kokkos_device
      pair build: half/bin/newton/kk/device
      stencil: half/bin/3d
      bin: kk/device
Per MPI rank memory allocation (min/avg/max) = 59.02 | 59.02 | 59.02 Mbytes
   Step          Temp          PotEng         KinEng         TotEng         Press     
         0   0.0019880716   0.015472945    0.0029806512   0.018453596    0.0086123296 
       100   0.0018422953   0.015737001    0.0027620937   0.018499095    0.0086740345 
       200   0.0015295735   0.016427657    0.0022932399   0.018720897    0.0088480957 
       300   0.0012051386   0.017242888    0.0018068252   0.019049713    0.0090574799 
       400   0.0011021045   0.017786372    0.0016523495   0.019438721    0.0092193239 
       500   0.001340625    0.017891773    0.0020099557   0.019901729    0.0093083377 
       600   0.0017456453   0.017819826    0.0026171894   0.020437016    0.0093734428 
       700   0.0019768027   0.017938087    0.0029637562   0.020901844    0.0094629816 
       800   0.0019316725   0.018322144    0.002896094    0.021218238    0.0095823706 
       900   0.0018683829   0.018753916    0.0028012059   0.021555122    0.0097184163 
      1000   0.0019572926   0.019012668    0.0029345054   0.021947173    0.0098329227 
      1100   0.0021087067   0.019060809    0.0031615156   0.022222325    0.0098890256 
      1200   0.0020744162   0.019036129    0.003110105    0.022146234    0.0098725568 
      1300   0.0019100705   0.019034214    0.0028637068   0.021897921    0.0098301931 
      1400   0.0018975371   0.019031346    0.0028449159   0.021876262    0.0098239498 
      1500   0.0020317516   0.019021252    0.0030461392   0.022067391    0.0098520039 
      1600   0.0020571495   0.019057169    0.0030842175   0.022141386    0.0098699131 
      1700   0.0019495172   0.019120195    0.0029228479   0.022043043    0.0098651179 
      1800   0.0019349392   0.019134779    0.0029009916   0.022035771    0.0098664094 
      1900   0.0020343869   0.019102816    0.0030500903   0.022152906    0.0098787277 
      2000   0.0020512452   0.019076064    0.0030753655   0.022151429    0.00987301   
Loop time of 169.687 on 64 procs for 2000 steps with 2048 atoms

Performance: 10183.455 tau/day, 11.786 timesteps/s, 24.139 katom-step/s
5740.4% CPU use with 1 MPI tasks x 64 OpenMP threads

MPI task timing breakdown:
Section |  min time  |  avg time  |  max time  |%varavg| %total
---------------------------------------------------------------
Pair    | 65.781     | 65.781     | 65.781     |   0.0 | 38.77
Neigh   | 0.60829    | 0.60829    | 0.60829    |   0.0 |  0.36
Comm    | 0.29792    | 0.29792    | 0.29792    |   0.0 |  0.18
Output  | 0.13946    | 0.13946    | 0.13946    |   0.0 |  0.08
Modify  | 77.113     | 77.113     | 77.113     |   0.0 | 45.44
Other   |            | 25.75      |            |       | 15.17

Nlocal:           2048 ave        2048 max        2048 min
Histogram: 1 0 0 0 0 0 0 0 0 0
Nghost:           6553 ave        6553 max        6553 min
Histogram: 1 0 0 0 0 0 0 0 0 0
Neighs:         255008 ave      255008 max      255008 min
Histogram: 1 0 0 0 0 0 0 0 0 0

Total # of neighbors = 255008
Ave neighs/atom = 124.51562
Neighbor list builds = 24
Dangerous builds = 0

# Switch to NVE for production
unfix           therm
fix             nve all nve
reset_timestep  0
thermo          100

run             10000
Generated 0 of 0 mixed pair_coeff terms from geometric mixing rule
Per MPI rank memory allocation (min/avg/max) = 59.02 | 59.02 | 59.02 Mbytes
   Step          Temp          PotEng         KinEng         TotEng         Press     
         0   0.0020512452   0.019076064    0.0030753655   0.022151429    0.00987301   
       100   0.0020542672   0.019071533    0.0030798962   0.022151429    0.0098723847 
       200   0.0020390775   0.019094307    0.0030571228   0.022151429    0.0098769879 
       300   0.0020122875   0.019134472    0.0030169574   0.02215143     0.0098843754 
       400   0.0019973032   0.019156938    0.0029944919   0.02215143     0.0098884383 
       500   0.0020064466   0.019143229    0.0030082003   0.02215143     0.0098860891 
       600   0.0020206587   0.019121921    0.0030295081   0.022151429    0.0098821472 
       700   0.0020143471   0.019131384    0.0030200453   0.02215143     0.0098831309 
       800   0.0019996478   0.019153423    0.0029980071   0.02215143     0.0098878769 
       900   0.00198809     0.019170751    0.0029806789   0.02215143     0.0098929499 
      1000   0.0019796214   0.019183448    0.0029679822   0.02215143     0.009896259  
      1100   0.0019832585   0.019177994    0.0029734352   0.02215143     0.0098954735 
      1200   0.0019940473   0.019161819    0.0029896105   0.02215143     0.0098924509 
      1300   0.001992412    0.019164271    0.0029871587   0.02215143     0.0098920116 
      1400   0.0019833815   0.01917781     0.0029736195   0.02215143     0.0098942471 
      1500   0.0019777839   0.019186203    0.0029652273   0.02215143     0.0098967531 
      1600   0.0019680505   0.019200796    0.0029506344   0.02215143     0.0098998934 
      1700   0.0019548163   0.019220637    0.0029307928   0.02215143     0.009902754  
      1800   0.0019562394   0.019218503    0.0029329263   0.02215143     0.0099015057 
      1900   0.0019704126   0.019197254    0.0029541757   0.02215143     0.0098962398 
      2000   0.0019881567   0.019170651    0.0029807788   0.02215143     0.0098898091 
      2100   0.0020049248   0.019145511    0.0030059188   0.02215143     0.009884505  
      2200   0.0020150302   0.01913036     0.0030210694   0.022151429    0.0098821924 
      2300   0.0020096016   0.019138499    0.0030129305   0.022151429    0.0098845557 
      2400   0.0019894608   0.019168695    0.0029827341   0.022151429    0.0098903175 
      2500   0.0019801545   0.019182648    0.0029687815   0.02215143     0.0098938697 
      2600   0.0019864844   0.019173158    0.0029782716   0.022151429    0.0098930084 
      2700   0.0020025933   0.019149006    0.0030024232   0.022151429    0.0098893056 
      2800   0.0020148087   0.019130692    0.0030207374   0.022151429    0.0098863137 
      2900   0.0020160201   0.019128876    0.0030225536   0.02215143     0.0098855824 
      3000   0.0020164976   0.01912816     0.0030232695   0.022151429    0.0098853306 
      3100   0.0020153423   0.019129892    0.0030215374   0.02215143     0.0098850868 
      3200   0.0020146232   0.01913097     0.0030204592   0.022151429    0.0098845744 
      3300   0.0020117169   0.019135328    0.003016102    0.022151429    0.0098847385 
      3400   0.0020039255   0.019147009    0.0030044206   0.022151429    0.0098872355 
      3500   0.0019886699   0.019169881    0.0029815484   0.022151429    0.0098924509 
      3600   0.0019741919   0.019191588    0.0029598419   0.022151429    0.0098976019 
      3700   0.0019657298   0.019204275    0.002947155    0.02215143     0.0098995349 
      3800   0.001974895    0.019190534    0.0029608961   0.02215143     0.0098957638 
      3900   0.0019969463   0.019157472    0.0029939569   0.022151429    0.009888998  
      4000   0.0020053805   0.019144827    0.003006602    0.022151429    0.0098860478 
      4100   0.0019973092   0.019156929    0.002994501    0.02215143     0.0098879115 
      4200   0.0019886626   0.019169892    0.0029815374   0.02215143     0.0098903884 
      4300   0.0019881342   0.019170685    0.0029807451   0.02215143     0.0098909051 
      4400   0.0019957888   0.019159208    0.0029922215   0.02215143     0.0098896981 
      4500   0.0019983685   0.01915534     0.0029960891   0.022151429    0.0098895023 
      4600   0.0019879638   0.019170939    0.0029804897   0.022151429    0.0098919408 
      4700   0.001978767    0.019184728    0.0029667013   0.022151429    0.0098938337 
      4800   0.0019893998   0.019168787    0.0029826427   0.022151429    0.0098914852 
      4900   0.0020051269   0.019145207    0.0030062217   0.022151429    0.0098884206 
      5000   0.0019971807   0.019157121    0.0029943082   0.022151429    0.009891144  
      5100   0.001969523    0.019198587    0.002952842    0.022151429    0.0098989919 
      5200   0.0019427521   0.019238724    0.0029127053   0.022151429    0.0099063418 
      5300   0.0019347978   0.01925065     0.0029007796   0.022151429    0.0099087195 
      5400   0.0019419966   0.019239857    0.0029115725   0.022151429    0.0099067365 
      5500   0.0019547454   0.019220743    0.0029306864   0.022151429    0.0099026929 
      5600   0.0019727775   0.019193708    0.0029577213   0.022151429    0.0098980316 
      5700   0.0019789244   0.019184492    0.0029669373   0.022151429    0.009896545  
      5800   0.0019711313   0.019196176    0.0029552532   0.02215143     0.0098978892 
      5900   0.0019751302   0.019190181    0.0029612486   0.02215143     0.0098965659 
      6000   0.0019900634   0.019167792    0.0029836375   0.022151429    0.0098928747 
      6100   0.0019921728   0.019164629    0.0029868001   0.022151429    0.0098917848 
      6200   0.0019829197   0.019178502    0.0029729272   0.022151429    0.0098928801 
      6300   0.0019860486   0.019173811    0.0029776183   0.022151429    0.0098908892 
      6400   0.0020078464   0.01914113     0.003010299    0.022151429    0.0098845566 
      6500   0.0020263173   0.019113437    0.0030379918   0.022151429    0.0098797597 
      6600   0.0020157292   0.019129312    0.0030221174   0.022151429    0.0098827494 
      6700   0.0019852151   0.019175061    0.0029763687   0.022151429    0.0098914377 
      6800   0.0019647787   0.019205701    0.002945729    0.02215143     0.0098982431 
      6900   0.0019689662   0.019199422    0.0029520071   0.022151429    0.0098988719 
      7000   0.0019866449   0.019172917    0.0029785122   0.022151429    0.0098956693 
      7100   0.0019855783   0.019174516    0.0029769131   0.022151429    0.0098956267 
      7200   0.0019635025   0.019207614    0.0029438157   0.02215143     0.0098998038 
      7300   0.0019556644   0.019219365    0.0029320642   0.022151429    0.0099011702 
      7400   0.0019709577   0.019196436    0.0029549931   0.022151429    0.0098965873 
      7500   0.0019970062   0.019157382    0.0029940467   0.022151429    0.0098890427 
      7600   0.0020103474   0.01913738     0.0030140486   0.022151429    0.0098847852 
      7700   0.0020021865   0.019149616    0.0030018134   0.022151429    0.0098864251 
      7800   0.0019921355   0.019164685    0.0029867442   0.022151429    0.0098896577 
      7900   0.0019916109   0.019165472    0.0029859577   0.022151429    0.0098909364 
      8000   0.0019956208   0.01915946     0.0029919695   0.022151429    0.0098904797 
      8100   0.0020040178   0.01914687     0.0030045589   0.022151429    0.0098886981 
      8200   0.0020069481   0.019142477    0.0030089523   0.022151429    0.0098882516 
      8300   0.0019905862   0.019167008    0.0029844214   0.022151429    0.0098922625 
      8400   0.0019678887   0.019201038    0.0029503917   0.022151429    0.0098976591 
      8500   0.0019635972   0.019207472    0.0029439576   0.022151429    0.0098983762 
      8600   0.0019782597   0.019185489    0.0029659407   0.022151429    0.0098942101 
      8700   0.0019873071   0.019171924    0.0029795052   0.022151429    0.0098913807 
      8800   0.0019726489   0.019193901    0.0029575285   0.022151429    0.0098947135 
      8900   0.0019479914   0.019230869    0.0029205603   0.02215143     0.0