LAMMPS (22 Jul 2025 - Update 3)
KOKKOS mode with Kokkos version 4.6.2 is enabled
  using 64 OpenMP thread(s) per MPI task
package kokkos
# Yukawa OCP: k2_G158 (kappa=2.0, Gamma=158.0)
# Matches hotSpring/barraCuda dsf_pp_cases

package         kokkos
units           lj
atom_style      atomic
boundary        p p p

lattice         fcc 0.238732414637843
Lattice spacing in x,y,z = 2.5588777 2.5588777 2.5588777
region          box block 0 8 0 8 0 8
create_box      1 box
Created orthogonal box = (0 0 0) to (20.471022 20.471022 20.471022)
  1 by 1 by 1 MPI processor grid
create_atoms    1 box
Created 2048 atoms
  using lattice units in orthogonal box = (0 0 0) to (20.471022 20.471022 20.471022)
  create_atoms CPU = 0.047 seconds
mass            1 1.0

pair_style      yukawa 2.0 6.5
pair_coeff      1 1 1.0

velocity        all create 0.006329113924050633 42 dist gaussian

# Equilibration with Berendsen-like thermostat
fix             therm all nvt temp 0.006329113924050633 0.006329113924050633 1.0
timestep        0.01
thermo_style    custom step temp pe ke etotal press
thermo          100

run             2000
Generated 0 of 0 mixed pair_coeff terms from geometric mixing rule
Neighbor list info ...
  update: every = 1 steps, delay = 0 steps, check = yes
  max neighbors/atom: 2000, page size: 100000
  master list distance cutoff = 6.8
  ghost atom cutoff = 6.8
  binsize = 3.4, bins = 7 7 7
  1 neighbor lists, perpetual/occasional/extra = 1 0 0
  (1) pair yukawa/kk, perpetual
      attributes: half, newton on, kokkos_device
      pair build: half/bin/newton/kk/device
      stencil: half/bin/3d
      bin: kk/device
Per MPI rank memory allocation (min/avg/max) = 59.02 | 59.02 | 59.02 Mbytes
   Step          Temp          PotEng         KinEng         TotEng         Press     
         0   0.0063291139   0.10590299     0.0094890353   0.11539202     0.043762961  
       100   0.0049971099   0.10822731     0.0074920048   0.11571931     0.04400238   
       200   0.0030843741   0.11197794     0.0046243021   0.11660224     0.044408895  
       300   0.0034796601   0.11254496     0.0052169415   0.1177619      0.04460017   
       400   0.004814166    0.11213129     0.0072177231   0.11934902     0.04478787   
       500   0.0047586456   0.11389132     0.0071344831   0.1210258      0.045176262  
       600   0.0048408909   0.11548055     0.0072577908   0.12273834     0.045578546  
       700   0.0061458809   0.1152788      0.00921432     0.12449312     0.045844064  
       800   0.0066448111   0.11559848     0.0099623499   0.12556083     0.046015135  
       900   0.0061415953   0.11658665     0.0092078948   0.12579454     0.046116361  
      1000   0.0063390946   0.11683191     0.009503999    0.12633591     0.046225643  
      1100   0.0066556531   0.1167837      0.0099786049   0.12676231     0.046286768  
      1200   0.0062767837   0.11698829     0.0094105783   0.12639887     0.046237011  
      1300   0.0061512888   0.11691804     0.0092224278   0.12614047     0.046195058  
      1400   0.0063668536   0.11677021     0.0095456172   0.12631582     0.046213326  
      1500   0.0064157775   0.11681995     0.0096189672   0.12643892     0.046229615  
      1600   0.0063645057   0.11677347     0.009542097    0.12631556     0.046208992  
      1700   0.0061960102   0.11683633     0.0092894772   0.12612581     0.046185042  
      1800   0.0062181542   0.11695498     0.0093226769   0.12627765     0.046219093  
      1900   0.0064364493   0.11704393     0.0096499597   0.12669389     0.046292849  
      2000   0.0064052429   0.11724983     0.009603173    0.126853       0.046329745  
Loop time of 167.224 on 64 procs for 2000 steps with 2048 atoms

Performance: 10333.444 tau/day, 11.960 timesteps/s, 24.494 katom-step/s
5689.1% CPU use with 1 MPI tasks x 64 OpenMP threads

MPI task timing breakdown:
Section |  min time  |  avg time  |  max time  |%varavg| %total
---------------------------------------------------------------
Pair    | 64.464     | 64.464     | 64.464     |   0.0 | 38.55
Neigh   | 1.0537     | 1.0537     | 1.0537     |   0.0 |  0.63
Comm    | 0.35298    | 0.35298    | 0.35298    |   0.0 |  0.21
Output  | 0.13062    | 0.13062    | 0.13062    |   0.0 |  0.08
Modify  | 76.008     | 76.008     | 76.008     |   0.0 | 45.45
Other   |            | 25.22      |            |       | 15.08

Nlocal:           2048 ave        2048 max        2048 min
Histogram: 1 0 0 0 0 0 0 0 0 0
Nghost:           7392 ave        7392 max        7392 min
Histogram: 1 0 0 0 0 0 0 0 0 0
Neighs:         321287 ave      321287 max      321287 min
Histogram: 1 0 0 0 0 0 0 0 0 0

Total # of neighbors = 321287
Ave neighs/atom = 156.87842
Neighbor list builds = 42
Dangerous builds = 0

# Switch to NVE for production
unfix           therm
fix             nve all nve
reset_timestep  0
thermo          100

run             10000
Generated 0 of 0 mixed pair_coeff terms from geometric mixing rule
Per MPI rank memory allocation (min/avg/max) = 59.02 | 59.02 | 59.02 Mbytes
   Step          Temp          PotEng         KinEng         TotEng         Press     
         0   0.0064052429   0.11724983     0.009603173    0.126853       0.046329745  
       100   0.0063046925   0.11740057     0.0094524211   0.126853       0.046339928  
       200   0.0063444103   0.11734099     0.0095119686   0.12685296     0.046335961  
       300   0.0064307201   0.11721163     0.0096413701   0.126853       0.046322045  
       400   0.0064435586   0.1171924      0.0096606186   0.12685302     0.046317653  
       500   0.0064060947   0.11724856     0.0096044501   0.12685301     0.046325028  
       600   0.0064241288   0.11722151     0.0096314881   0.126853       0.04632739   
       700   0.0063744978   0.11729591     0.0095570779   0.12685299     0.046327698  
       800   0.0063418257   0.11734489     0.0095080936   0.12685298     0.046331715  
       900   0.0063449722   0.11734018     0.0095128112   0.12685299     0.046336267  
      1000   0.0064286891   0.11721462     0.0096383251   0.12685294     0.046328553  
      1100   0.0065378268   0.117051       0.0098019518   0.12685295     0.046312317  
      1200   0.0065104437   0.11709211     0.0097608972   0.12685301     0.046312679  
      1300   0.0064281243   0.11721551     0.0096374784   0.12685299     0.046328571  
      1400   0.006350207    0.11733235     0.0095206594   0.12685301     0.046342153  
      1500   0.0063011232   0.11740592     0.0094470697   0.12685299     0.046346382  
      1600   0.0062606773   0.11746656     0.0093864305   0.12685299     0.046342988  
      1700   0.0063425409   0.11734385     0.0095091659   0.12685302     0.046333054  
      1800   0.0064409571   0.11719633     0.0096567181   0.12685305     0.046325713  
      1900   0.0064405597   0.11719692     0.0096561224   0.12685304     0.046329246  
      2000   0.0063465593   0.11733786     0.0095151906   0.12685305     0.046335485  
      2100   0.0063719774   0.11729976     0.0095532991   0.12685306     0.046332078  
      2200   0.0063687371   0.11730456     0.009548441    0.126853       0.046333718  
      2300   0.0063069379   0.1173972      0.0094557875   0.12685299     0.046342098  
      2400   0.0063739904   0.1172967      0.0095563171   0.12685302     0.046335751  
      2500   0.0064006161   0.11725676     0.0095962362   0.12685299     0.046331611  
      2600   0.0062890685   0.11742402     0.0094289965   0.12685301     0.04633932   
      2700   0.0064008816   0.11725638     0.0095966343   0.12685301     0.046330526  
      2800   0.0065555332   0.11702452     0.0098284984   0.12685301     0.046318592  
      2900   0.0064052259   0.11724986     0.0096031475   0.12685301     0.046327198  
      3000   0.006323354    0.11737261     0.0094803997   0.12685301     0.046332248  
      3100   0.0063520763   0.11732956     0.009523462    0.12685302     0.046330088  
      3200   0.0063005051   0.11740689     0.009446143    0.12685303     0.04633007   
      3300   0.006364646    0.11731073     0.0095423074   0.12685304     0.046324378  
      3400   0.0063974603   0.11726151     0.0095915048   0.12685302     0.046323394  
      3500   0.0062931349   0.11741789     0.0094350931   0.12685298     0.046335895  
      3600   0.0062948738   0.11741529     0.0094377001   0.12685299     0.046340249  
      3700   0.0063208738   0.11737631     0.0094766811   0.12685299     0.046337711  
      3800   0.0063418126   0.11734491     0.009508074    0.12685298     0.046334469  
      3900   0.006387126    0.11727699     0.0095760109   0.126853       0.046327344  
      4000   0.0063927261   0.1172686      0.0095844071   0.12685301     0.046326614  
      4100   0.0063874501   0.11727652     0.0095764968   0.12685301     0.046325955  
      4200   0.0063355941   0.11735427     0.0094987508   0.12685302     0.046331578  
      4300   0.0062628299   0.11746337     0.0093896579   0.12685303     0.046338176  
      4400   0.0064049853   0.11725021     0.0096027868   0.126853       0.046322461  
      4500   0.0064915533   0.11712044     0.0097325754   0.12685301     0.046311307  
      4600   0.0064214695   0.11722551     0.009627501    0.12685301     0.046323236  
      4700   0.0063205866   0.11737674     0.0094762506   0.12685299     0.046338356  
      4800   0.0062935689   0.11741727     0.0094357437   0.12685301     0.046338178  
      4900   0.0063759297   0.11729379     0.0095592246   0.12685302     0.046331848  
      5000   0.006316454    0.11738296     0.0094700547   0.12685302     0.046338454  
      5100   0.0064314293   0.11721056     0.0096424334   0.12685299     0.046330042  
      5200   0.0065048833   0.11710046     0.0097525606   0.12685302     0.046318554  
      5300   0.0063400502   0.1173476      0.0095054318   0.12685304     0.046328996  
      5400   0.0063226779   0.11737365     0.009479386    0.12685304     0.046331466  
      5500   0.0064547531   0.11717562     0.0096774021   0.12685302     0.046324763  
      5600   0.0064032825   0.1172528      0.0096002339   0.12685303     0.046332155  
      5700   0.0063409446   0.11734624     0.0095067726   0.12685302     0.046336062  
      5800   0.006387325    0.11727671     0.0095763093   0.12685302     0.046325361  
      5900   0.0064367146   0.11720264     0.0096503576   0.126853       0.046320489  
      6000   0.0063663663   0.11730812     0.0095448866   0.12685301     0.046326572  
      6100   0.0063697363   0.11730309     0.0095499391   0.12685302     0.046329659  
      6200   0.0064220861   0.11722459     0.0096284255   0.12685302     0.046323274  
      6300   0.0065400147   0.11704778     0.009805232    0.12685301     0.046312996  
      6400   0.0064137548   0.11723709     0.0096159346   0.12685302     0.046322829  
      6500   0.0063386202   0.11734972     0.0095032877   0.12685301     0.046330349  
      6600   0.0064821568   0.11713451     0.0097184875   0.12685299     0.046321641  
      6700   0.0065250244   0.11707025     0.0097827576   0.126853       0.046318925  
      6800   0.0065083481   0.11709525     0.0097577552   0.12685301     0.046319819  
      6900   0.0064935495   0.11711743     0.0097355682   0.126853       0.04631667   
      7000   0.006453868    0.11717693     0.0096760751   0.12685301     0.046316892  
      7100   0.0064872491   0.1171269      0.0097261222   0.12685302     0.046323155  
      7200   0.0063719906   0.1172997      0.009553319    0.12685302     0.046336078  
      7300   0.0062907779   0.11742146     0.0094315593   0.12685302     0.04633821   
      7400   0.0063733517   0.11729764     0.0095553596   0.126853       0.046328403  
      7500   0.0063665159   0.11730789     0.0095451108   0.126853       0.046328854  
      7600   0.0062904638   0.11742191     0.0094310885   0.126853       0.046333819  
      7700   0.0063045204   0.11740082     0.009452163    0.12685299     0.046334036  
      7800   0.0062484931   0.11748481     0.0093681632   0.12685297     0.046339385  
      7900   0.0063120916   0.11738945     0.0094635143   0.12685297     0.04633469   
      8000   0.0063351109   0.11735497     0.0094980264   0.126853       0.046329398  
      8100   0.0062458441   0.1174888      0.0093641916   0.12685299     0.046335186  
      8200   0.0062405586   0.11749675     0.0093562672   0.12685301     0.046340092  
      8300   0.0062263092   0.11751811     0.0093349035   0.12685301     0.046344179  
      8400   0.0062176842   0.11753104     0.0093219724   0.12685301     0.046344229  
      8500   0.0063269497   0.11736721     0.0094857906   0.126853       0.046331898  
      8600   0.0064755425   0.11714442     0.009708571    0.12685299     0.046317507  
      8700   0.0063971824   0.1172619      0.0095910882   0.12685299     0.046326383  
      8800   0.0062711723   0.11745082     0.0094021653   0.12685298     0.04634112   
      8900   0.0063394774   0.11734841     0.0095045729   0.12685298     0.046331923  
      9000   0.0064502106   0.11718239     0.0096705917   0.12685298     0.046316924  
      9100   0.0063578274   0.11732095     0.0095320845   0.12685303     0.046322808  
      9200   0.0064031444   0.117253       0.0096000268   0.12685302     0.046324269  
      9300   0.0064799186   0.11713787     0.0097151319   0.12685301     0.046321114  
      9400   0.006356133    0.11732345     0.0095295441   0.12685299     0.046335051  
      9500   0.0062117908   0.11753985     0.0093131366   0.12685299     0.046353037  
      9600   0.0062874301   0.11742644     0.0094265401   0.12685298     0.046343648  
      9700   0.0064680422   0.11715566     0.009697326    0.12685299     0.04632029   
      9800   0.0065262144   0.11706848     0.0097845416   0.12685302     0.04631527   
      9900   0.0063848733   0.11728039     0.0095726336   0.12685303     0.046333096  
     10000   0.0063043224   0.11740118     0.0094518662   0.12685305     0.046348423  
Loop time of 525.144 on 64 procs for 10000 steps with 2048 atoms

Performance: 16452.630 tau/day, 19.042 timesteps/s, 38.999 katom-step/s
5605.1% CPU use with 1 MPI tasks x 64 OpenMP threads

MPI task timing breakdown:
Section |  min time  |  avg time  |  max time  |%varavg| %total
---------------------------------------------------------------
Pair    | 326.48     | 326.48     | 326.48     |   0.0 | 62.17
Neigh   | 5.8422     | 5.8422     | 5.8422     |   0.0 |  1.11
Comm    | 1.7297     | 1.7297     | 1.7297     |   0.0 |  0.33
Output  | 0.65488    | 0.65488    | 0.65488    |   0.0 |  0.12
Modify  | 62.853     | 62.853     | 62.853     |   0.0 | 11.97
Other   |            | 127.6      |            |       | 24.29

Nlocal:           2048 ave        2048 max        2048 min
Histogram: 1 0 0 0 0 0 0 0 0 0
Nghost:           7390 ave        7390 max        7390 min
Histogram: 1 0 0 0 0 0 0 0 0 0
Neighs:         321211 ave      321211 max      321211 min
Histogram: 1 0 0 0 0 0 0 0 0 0

Total # of neighbors = 321211
Ave neighs/atom = 156.84131
Neighbor list builds = 228
Dangerous builds = 0
Total wall time: 0:11:32
