LAMMPS (22 Jul 2025 - Update 3)
KOKKOS mode with Kokkos version 4.6.2 is enabled
  using 64 OpenMP thread(s) per MPI task
package kokkos
# Yukawa OCP: k3_G100 (kappa=3.0, Gamma=100.0)
# Matches hotSpring/barraCuda dsf_pp_cases

package         kokkos
units           lj
atom_style      atomic
boundary        p p p

lattice         fcc 0.238732414637843
Lattice spacing in x,y,z = 2.5588777 2.5588777 2.5588777
region          box block 0 8 0 8 0 8
create_box      1 box
Created orthogonal box = (0 0 0) to (20.471022 20.471022 20.471022)
  1 by 1 by 1 MPI processor grid
create_atoms    1 box
Created 2048 atoms
  using lattice units in orthogonal box = (0 0 0) to (20.471022 20.471022 20.471022)
  create_atoms CPU = 0.046 seconds
mass            1 1.0

pair_style      yukawa 3.0 6.0
pair_coeff      1 1 1.0

velocity        all create 0.01 42 dist gaussian

# Equilibration with Berendsen-like thermostat
fix             therm all nvt temp 0.01 0.01 1.0
timestep        0.01
thermo_style    custom step temp pe ke etotal press
thermo          100

run             2000
Generated 0 of 0 mixed pair_coeff terms from geometric mixing rule
Neighbor list info ...
  update: every = 1 steps, delay = 0 steps, check = yes
  max neighbors/atom: 2000, page size: 100000
  master list distance cutoff = 6.3
  ghost atom cutoff = 6.3
  binsize = 3.15, bins = 7 7 7
  1 neighbor lists, perpetual/occasional/extra = 1 0 0
  (1) pair yukawa/kk, perpetual
      attributes: half, newton on, kokkos_device
      pair build: half/bin/newton/kk/device
      stencil: half/bin/3d
      bin: kk/device
Per MPI rank memory allocation (min/avg/max) = 59.02 | 59.02 | 59.02 Mbytes
   Step          Temp          PotEng         KinEng         TotEng         Press     
         0   0.01           0.015472945    0.014992676    0.03046562     0.010524103  
       100   0.0092444275   0.01683659     0.01385987     0.030696461    0.0108353    
       200   0.0075106038   0.020571693    0.011260405    0.031832097    0.011691905  
       300   0.0063688849   0.023973746    0.0095486626   0.033522408    0.012531416  
       400   0.0075737012   0.02430282     0.011355005    0.035657824    0.012962852  
       500   0.0094911143   0.023743328    0.01422972     0.037973048    0.013236123  
       600   0.010356779    0.024054896    0.015527584    0.039582479    0.013511133  
       700   0.010185385    0.024727944    0.015270618    0.039998562    0.013677228  
       800   0.0097602616   0.025275075    0.014633244    0.039908319    0.013751095  
       900   0.0099964175   0.025347503    0.014987305    0.040334808    0.013840986  
      1000   0.010264615    0.025370913    0.015389404    0.040760317    0.013916431  
      1100   0.0099753857   0.025588881    0.014955772    0.040544653    0.0139108    
      1200   0.0098599886   0.02555192     0.014782761    0.040334682    0.013877124  
      1300   0.010040168    0.025409791    0.015052899    0.04046269     0.013871851  
      1400   0.010145832    0.025298478    0.015211317    0.040509795    0.013853877  
      1500   0.0099564524   0.025260124    0.014927386    0.04018751     0.013802523  
      1600   0.009712516    0.025471314    0.01456166     0.040032975    0.013799331  
      1700   0.010146654    0.025297839    0.015212549    0.040510388    0.013856952  
      1800   0.01022543     0.025317349    0.015330655    0.040648004    0.01388315   
      1900   0.0098021726   0.025556582    0.01469608     0.040252661    0.013853042  
      2000   0.0098714218   0.025497645    0.014799903    0.040297547    0.01386536   
Loop time of 171.471 on 64 procs for 2000 steps with 2048 atoms

Performance: 10077.505 tau/day, 11.664 timesteps/s, 23.887 katom-step/s
5645.1% CPU use with 1 MPI tasks x 64 OpenMP threads

MPI task timing breakdown:
Section |  min time  |  avg time  |  max time  |%varavg| %total
---------------------------------------------------------------
Pair    | 65.931     | 65.931     | 65.931     |   0.0 | 38.45
Neigh   | 1.3972     | 1.3972     | 1.3972     |   0.0 |  0.81
Comm    | 0.30758    | 0.30758    | 0.30758    |   0.0 |  0.18
Output  | 0.13558    | 0.13558    | 0.13558    |   0.0 |  0.08
Modify  | 77.721     | 77.721     | 77.721     |   0.0 | 45.33
Other   |            | 25.98      |            |       | 15.15

Nlocal:           2048 ave        2048 max        2048 min
Histogram: 1 0 0 0 0 0 0 0 0 0
Nghost:           6584 ave        6584 max        6584 min
Histogram: 1 0 0 0 0 0 0 0 0 0
Neighs:         255095 ave      255095 max      255095 min
Histogram: 1 0 0 0 0 0 0 0 0 0

Total # of neighbors = 255095
Ave neighs/atom = 124.55811
Neighbor list builds = 55
Dangerous builds = 0

# Switch to NVE for production
unfix           therm
fix             nve all nve
reset_timestep  0
thermo          100

run             10000
Generated 0 of 0 mixed pair_coeff terms from geometric mixing rule
Per MPI rank memory allocation (min/avg/max) = 59.02 | 59.02 | 59.02 Mbytes
   Step          Temp          PotEng         KinEng         TotEng         Press     
         0   0.0098714218   0.025497645    0.014799903    0.040297547    0.01386536   
       100   0.0098619975   0.025511775    0.014785773    0.040297548    0.013872898  
       200   0.0097925797   0.025615851    0.014681697    0.040297549    0.013883328  
       300   0.0097714635   0.025647511    0.014650038    0.04029755     0.013881248  
       400   0.0098347955   0.025552558    0.01474499     0.040297548    0.013867207  
       500   0.0098809978   0.02548329     0.01481426     0.040297549    0.013852591  
       600   0.0099389594   0.025396387    0.01490116     0.040297546    0.013842032  
       700   0.0098505356   0.025528959    0.014768589    0.040297548    0.01386076   
       800   0.0097020184   0.025751629    0.014545922    0.040297551    0.013887855  
       900   0.0097380175   0.025697652    0.014599894    0.040297546    0.013884832  
      1000   0.0097367785   0.025699512    0.014598036    0.040297548    0.013881371  
      1100   0.0097366439   0.025699714    0.014597834    0.040297548    0.013883332  
      1200   0.0097185072   0.025726904    0.014570643    0.040297547    0.013893501  
      1300   0.0096127653   0.02588544     0.014412107    0.040297547    0.013915921  
      1400   0.0095994809   0.025905358    0.014392191    0.040297549    0.013912547  
      1500   0.0097608245   0.02566346     0.014634088    0.040297548    0.013876391  
      1600   0.0098826452   0.025480819    0.014816729    0.040297548    0.013850599  
      1700   0.0099029976   0.025450303    0.014847243    0.040297547    0.013854565  
      1800   0.0097327884   0.025705493    0.014592054    0.040297547    0.013895172  
      1900   0.0096090681   0.025890987    0.014406564    0.040297551    0.013918682  
      2000   0.0097562884   0.025670261    0.014627287    0.040297548    0.013885889  
      2100   0.0098903057   0.025469335    0.014828215    0.040297549    0.013846553  
      2200   0.01001377     0.025284225    0.015013321    0.040297547    0.013821712  
      2300   0.0099470862   0.025384204    0.014913344    0.040297548    0.013840317  
      2400   0.0097824583   0.025631026    0.014666523    0.040297549    0.013880187  
      2500   0.0097214723   0.025722463    0.014575088    0.040297551    0.013896893  
      2600   0.0098172847   0.02557881     0.014718737    0.040297547    0.013879842  
      2700   0.0097920564   0.025616635    0.014680913    0.040297548    0.013877226  
      2800   0.009795485    0.025611496    0.014686053    0.040297549    0.01386827   
      2900   0.009913043    0.025435243    0.014862304    0.040297547    0.013836626  
      3000   0.0099769761   0.025339389    0.014958157    0.040297546    0.013820209  
      3100   0.0098627722   0.025510612    0.014786935    0.040297547    0.013849809  
      3200   0.0096467665   0.025834465    0.014463084    0.04029755     0.013902069  
      3300   0.0096247473   0.025867479    0.014430072    0.040297551    0.013913461  
      3400   0.0098159511   0.02558081     0.014716737    0.040297547    0.013879519  
      3500   0.0098754161   0.025491657    0.014805891    0.040297548    0.013864602  
      3600   0.0098175805   0.025578367    0.01471918     0.040297547    0.013877346  
      3700   0.0096516007   0.025827219    0.014470332    0.040297551    0.013903166  
      3800   0.0096674911   0.025803392    0.014494156    0.040297548    0.013897776  
      3900   0.0097453526   0.025686657    0.014610891    0.040297548    0.01387632   
      4000   0.0098451724   0.025536999    0.014760548    0.040297547    0.013855662  
      4100   0.0098243696   0.025568189    0.014729359    0.040297548    0.013859283  
      4200   0.0097896609   0.025620227    0.014677321    0.040297548    0.013869374  
      4300   0.0098065707   0.025594875    0.014702674    0.040297549    0.013867326  
      4400   0.0098124039   0.025586129    0.014711419    0.040297548    0.013866289  
      4500   0.0097806304   0.025633766    0.014663782    0.040297548    0.013874105  
      4600   0.0097370906   0.025699045    0.014598504    0.040297549    0.013888343  
      4700   0.0097654477   0.025656528    0.014641019    0.040297547    0.013890933  
      4800   0.0097777014   0.025638158    0.014659391    0.040297549    0.013888022  
      4900   0.0098043738   0.025598168    0.01469938     0.040297548    0.013880355  
      5000   0.0097696749   0.025650191    0.014647357    0.040297548    0.013886303  
      5100   0.0096918005   0.025766946    0.014530602    0.040297549    0.013905115  
      5200   0.0096396793   0.025845089    0.014452459    0.040297548    0.013920013  
      5300   0.0096304691   0.025858899    0.01443865     0.040297549    0.013919882  
      5400   0.009762781    0.025660529    0.014637021    0.04029755     0.013888414  
      5500   0.0099428827   0.025390503    0.014907042    0.040297545    0.01385203   
      5600   0.0098391276   0.025546066    0.014751485    0.040297551    0.013861807  
      5700   0.0098680666   0.025502675    0.014794872    0.040297547    0.013854449  
      5800   0.0098628394   0.025510513    0.014787035    0.040297549    0.013850951  
      5900   0.0098290407   0.025561187    0.014736362    0.040297549    0.013856453  
      6000   0.0098765999   0.025489883    0.014807666    0.040297549    0.013846084  
      6100   0.0099219096   0.025421948    0.014875597    0.040297546    0.013839043  
      6200   0.0097893059   0.025620761    0.014676789    0.04029755     0.013869475  
      6300   0.0097571817   0.025668922    0.014628626    0.040297548    0.013889951  
      6400   0.0097162325   0.025730315    0.014567232    0.040297547    0.013899598  
      6500   0.009649147    0.025830895    0.014466653    0.040297549    0.013911366  
      6600   0.0096629462   0.025810206    0.014487342    0.040297548    0.013909962  
      6700   0.0097341908   0.025703392    0.014594157    0.040297548    0.013892115  
      6800   0.0098246288   0.025567798    0.014729747    0.040297545    0.013874038  
      6900   0.0097343977   0.025703083    0.014594467    0.04029755     0.013884205  
      7000   0.0097687345   0.025651602    0.014645947    0.040297549    0.013879777  
      7100   0.0098475533   0.025533427    0.014764117    0.040297545    0.013868177  
      7200   0.0096927698   0.025765493    0.014532056    0.040297548    0.013892161  
      7300   0.0096317304   0.025857009    0.014440541    0.04029755     0.013898166  
      7400   0.0097846317   0.025627765    0.014669781    0.040297546    0.013868521  
      7500   0.0098261992   0.025565444    0.014732102    0.040297546    0.013866665  
      7600   0.009726606    0.025714764    0.014582785    0.040297549    0.013899874  
      7700   0.0096398708   0.025844803    0.014452746    0.040297548    0.013922454  
      7800   0.0096445487   0.025837791    0.014459759    0.04029755     0.013913303  
      7900   0.0098007352   0.025603622    0.014693925    0.040297547    0.01387918   
      8000   0.0098192395   0.025575878    0.014721667    0.040297546    0.013878972  
      8100   0.0096502744   0.025829207    0.014468344    0.040297551    0.013906326  
      8200   0.009748265    0.025682291    0.014615258    0.040297548    0.01388459   
      8300   0.0099304125   0.025409199    0.014888345    0.040297545    0.013849394  
      8400   0.0098232382   0.025569888    0.014727663    0.040297551    0.013865114  
      8500   0.0097963773   0.025610156    0.014687391    0.040297547    0.013882406  
      8600   0.0096923303   0.025766153    0.014531397    0.04029755     0.013902831  
      8700   0.0097522244   0.025676355    0.014621194    0.040297549    0.013888658  
      8800   0.0099143298   0.025433314    0.014864233    0.040297547    0.01385203   
      8900   0.0099300845   0.025409694    0.014887854    0.040297548    0.013846177  
      9000   0.0098462616   0.025535369    0.014762181    0.04029755     0.01386638   
      9100   0.00983196     0.025556811    0.014740739    0.04029755     0.013870773  
      9200   0.0098787161   0.025486709    0.014810839    0.040297548    0.013862453  
      9300   0.0098651963   0.025506979    0.014790569    0.040297548    0.013863959  
      9400   0.0098061985   0.025595433    0.014702115    0.040297549    0.013871447  
      9500   0.0098020752   0.025601615    0.014695934    0.040297549    0.013867954  
      9600   0.0098706299   0.025498833    0.014798715    0.040297548    0.013850205  
      9700   0.0099556342   0.025371389    0.01492616     0.040297548    0.013828449  
      9800   0.010025147    0.02526717     0.015030378    0.040297548    0.013811857  
      9900   0.010046591    0.025235018    0.015062528    0.040297546    0.013811501  
     10000   0.0099583389   0.025367333    0.014930215    0.040297548    0.013838521  
Loop time of 609.292 on 64 procs for 10000 steps with 2048 atoms

Performance: 14180.393 tau/day, 16.412 timesteps/s, 33.613 katom-step/s
4914.7% CPU use with 1 MPI tasks x 64 OpenMP threads

MPI task timing breakdown:
Section |  min time  |  avg time  |  max time  |%varavg| %total
---------------------------------------------------------------
Pair    | 377.41     | 377.41     | 377.41     |   0.0 | 61.94
Neigh   | 8.2278     | 8.2278     | 8.2278     |   0.0 |  1.35
Comm    | 1.5876     | 1.5876     | 1.5876     |   0.0 |  0.26
Output  | 0.72203    | 0.72203    | 0.72203    |   0.0 |  0.12
Modify  | 73.348     | 73.348     | 73.348     |   0.0 | 12.04
Other   |            | 148        |            |       | 24.29

Nlocal:           2048 ave        2048 max        2048 min
Histogram: 1 0 0 0 0 0 0 0 0 0
Nghost:           6588 ave        6588 max        6588 min
Histogram: 1 0 0 0 0 0 0 0 0 0
Neighs:         254975 ave      254975 max      254975 min
Histogram: 1 0 0 0 0 0 0 0 0 0

Total # of neighbors = 254975
Ave neighs/atom = 124.49951
Neighbor list builds = 278
Dangerous builds = 0
Total wall time: 0:13:01
