LAMMPS (22 Jul 2025 - Update 3)
KOKKOS mode with Kokkos version 4.6.2 is enabled
  will use up to 1 GPU(s) per node
  using 1 OpenMP thread(s) per MPI task
package kokkos
# Yukawa OCP: k1_G14 (kappa=1.0, Gamma=14.0)
# Kokkos-CUDA on Titan V — GPU vs GPU comparison with barraCuda

package         kokkos
units           lj
atom_style      atomic
boundary        p p p

lattice         fcc 0.238732414637843
Lattice spacing in x,y,z = 2.5588777 2.5588777 2.5588777
region          box block 0 8 0 8 0 8
create_box      1 box
Created orthogonal box = (0 0 0) to (20.471022 20.471022 20.471022)
  1 by 1 by 1 MPI processor grid
create_atoms    1 box
Created 2048 atoms
  using lattice units in orthogonal box = (0 0 0) to (20.471022 20.471022 20.471022)
  create_atoms CPU = 0.082 seconds
mass            1 1.0

pair_style      yukawa 1.0 8.0
pair_coeff      1 1 1.0

velocity        all create 0.07142857142857142 42 dist gaussian

fix             therm all nvt temp 0.07142857142857142 0.07142857142857142 1.0
timestep        0.01
thermo_style    custom step temp pe ke etotal press
thermo          1000

run             5000
Generated 0 of 0 mixed pair_coeff terms from geometric mixing rule
Neighbor list info ...
  update: every = 1 steps, delay = 0 steps, check = yes
  max neighbors/atom: 2000, page size: 100000
  master list distance cutoff = 8.3
  ghost atom cutoff = 8.3
  binsize = 8.3, bins = 3 3 3
  1 neighbor lists, perpetual/occasional/extra = 1 0 0
  (1) pair yukawa/kk, perpetual
      attributes: full, newton off, kokkos_device
      pair build: full/bin/kk/device
      stencil: full/bin/3d
      bin: kk/device
Per MPI rank memory allocation (min/avg/max) = 3.535 | 3.535 | 3.535 Mbytes
   Step          Temp          PotEng         KinEng         TotEng         Press     
         0   0.071428571    0.99911862     0.10709054     1.1062092      0.30803331   
      1000   0.070874105    1.067137       0.10625925     1.1733963      0.31627319   
      2000   0.070348749    1.0693841      0.1054716      1.1748557      0.31650392   
      3000   0.071143987    1.0676834      0.10666387     1.1743473      0.31651612   
      4000   0.07292783     1.0676588      0.10933833     1.1769971      0.31693024   
      5000   0.070531239    1.0699632      0.1057452      1.1757084      0.31668804   
Loop time of 3.95982 on 1 procs for 5000 steps with 2048 atoms

Performance: 1090958.643 tau/day, 1262.684 timesteps/s, 2.586 Matom-step/s
100.0% CPU use with 1 MPI tasks x 1 OpenMP threads

MPI task timing breakdown:
Section |  min time  |  avg time  |  max time  |%varavg| %total
---------------------------------------------------------------
Pair    | 0.08677    | 0.08677    | 0.08677    |   0.0 |  2.19
Neigh   | 1.555      | 1.555      | 1.555      |   0.0 | 39.27
Comm    | 0.27906    | 0.27906    | 0.27906    |   0.0 |  7.05
Output  | 0.00020304 | 0.00020304 | 0.00020304 |   0.0 |  0.01
Modify  | 1.9091     | 1.9091     | 1.9091     |   0.0 | 48.21
Other   |            | 0.1296     |            |       |  3.27

Nlocal:           2048 ave        2048 max        2048 min
Histogram: 1 0 0 0 0 0 0 0 0 0
Nghost:          10092 ave       10092 max       10092 min
Histogram: 1 0 0 0 0 0 0 0 0 0
Neighs:              0 ave           0 max           0 min
Histogram: 1 0 0 0 0 0 0 0 0 0
FullNghs:  1.16931e+06 ave 1.16931e+06 max 1.16931e+06 min
Histogram: 1 0 0 0 0 0 0 0 0 0

Total # of neighbors = 1169306
Ave neighs/atom = 570.9502
Neighbor list builds = 368
Dangerous builds = 0

unfix           therm
fix             nve all nve
reset_timestep  0
thermo          1000

run             30000
Generated 0 of 0 mixed pair_coeff terms from geometric mixing rule
Per MPI rank memory allocation (min/avg/max) = 3.444 | 3.444 | 3.444 Mbytes
   Step          Temp          PotEng         KinEng         TotEng         Press     
         0   0.070531239    1.0699632      0.1057452      1.1757084      0.31668804   
      1000   0.071828375    1.0680204      0.10768995     1.1757103      0.31675927   
      2000   0.071725352    1.0681875      0.1075355      1.175723       0.31673174   
      3000   0.071434115    1.0686113      0.10709885     1.1757101      0.31669563   
      4000   0.06999286     1.0707716      0.10493803     1.1757096      0.31660197   
      5000   0.071589061    1.0683828      0.10733116     1.175714       0.31672339   
      6000   0.070330807    1.0702647      0.1054447      1.1757094      0.31665227   
      7000   0.072064001    1.0676656      0.10804322     1.1757088      0.31672389   
      8000   0.071290929    1.0688322      0.10688418     1.1757164      0.31670937   
      9000   0.070883915    1.0694377      0.10627396     1.1757116      0.31668036   
     10000   0.070821586    1.0695344      0.10618051     1.1757149      0.31666935   
     11000   0.070669419    1.0697567      0.10595237     1.175709       0.31664646   
     12000   0.071252422    1.068889       0.10682645     1.1757155      0.31668278   
     13000   0.07148239     1.068538       0.10717123     1.1757093      0.31665447   
     14000   0.071125237    1.0690802      0.10663576     1.175716       0.31670085   
     15000   0.070683391    1.0697384      0.10597332     1.1757117      0.31662425   
     16000   0.071032656    1.0692087      0.10649696     1.1757057      0.31663322   
     17000   0.071027545    1.0692286      0.10648929     1.1757179      0.31664676   
     18000   0.072158292    1.0675276      0.10818459     1.1757122      0.31670937   
     19000   0.070623838    1.0698315      0.10588403     1.1757155      0.31668069   
     20000   0.070918843    1.0693919      0.10632632     1.1757182      0.31668926   
     21000   0.070438614    1.0701071      0.10560633     1.1757134      0.3166327    
     22000   0.072219958    1.0674326      0.10827704     1.1757097      0.31673638   
     23000   0.070504997    1.0700063      0.10570586     1.1757122      0.31666345   
     24000   0.072852995    1.0664893      0.10922613     1.1757154      0.31679182   
     25000   0.071872002    1.0679573      0.10775536     1.1757126      0.316727     
     26000   0.071553764    1.0684384      0.10727824     1.1757167      0.31668606   
     27000   0.072078889    1.0676496      0.10806554     1.1757151      0.31667774   
     28000   0.071585289    1.0683894      0.1073255      1.1757149      0.31672593   
     29000   0.070947184    1.0693438      0.10636881     1.1757126      0.31661415   
     30000   0.071189927    1.0689854      0.10673275     1.1757182      0.31669407   
Loop time of 20.991 on 1 procs for 30000 steps with 2048 atoms

Performance: 1234815.117 tau/day, 1429.184 timesteps/s, 2.927 Matom-step/s
100.0% CPU use with 1 MPI tasks x 1 OpenMP threads

MPI task timing breakdown:
Section |  min time  |  avg time  |  max time  |%varavg| %total
---------------------------------------------------------------
Pair    | 0.50714    | 0.50714    | 0.50714    |   0.0 |  2.42
Neigh   | 9.4086     | 9.4086     | 9.4086     |   0.0 | 44.82
Comm    | 1.2488     | 1.2488     | 1.2488     |   0.0 |  5.95
Output  | 0.0014572  | 0.0014572  | 0.0014572  |   0.0 |  0.01
Modify  | 8.7379     | 8.7379     | 8.7379     |   0.0 | 41.63
Other   |            | 1.087      |            |       |  5.18

Nlocal:           2048 ave        2048 max        2048 min
Histogram: 1 0 0 0 0 0 0 0 0 0
Nghost:          10095 ave       10095 max       10095 min
Histogram: 1 0 0 0 0 0 0 0 0 0
Neighs:              0 ave           0 max           0 min
Histogram: 1 0 0 0 0 0 0 0 0 0
FullNghs:  1.16944e+06 ave 1.16944e+06 max 1.16944e+06 min
Histogram: 1 0 0 0 0 0 0 0 0 0

Total # of neighbors = 1169440
Ave neighs/atom = 571.01562
Neighbor list builds = 2222
Dangerous builds = 0
Total wall time: 0:00:40
