LAMMPS (22 Jul 2025 - Update 3)
KOKKOS mode with Kokkos version 4.6.2 is enabled
  will use up to 1 GPU(s) per node
  using 1 OpenMP thread(s) per MPI task
package kokkos
# Yukawa OCP: k3_G503 (kappa=3.0, Gamma=503.0)
# Kokkos-CUDA on Titan V — GPU vs GPU comparison with barraCuda

package         kokkos
units           lj
atom_style      atomic
boundary        p p p

lattice         fcc 0.238732414637843
Lattice spacing in x,y,z = 2.5588777 2.5588777 2.5588777
region          box block 0 8 0 8 0 8
create_box      1 box
Created orthogonal box = (0 0 0) to (20.471022 20.471022 20.471022)
  1 by 1 by 1 MPI processor grid
create_atoms    1 box
Created 2048 atoms
  using lattice units in orthogonal box = (0 0 0) to (20.471022 20.471022 20.471022)
  create_atoms CPU = 0.003 seconds
mass            1 1.0

pair_style      yukawa 3.0 6.0
pair_coeff      1 1 1.0

velocity        all create 0.0019880715705765406 42 dist gaussian

fix             therm all nvt temp 0.0019880715705765406 0.0019880715705765406 1.0
timestep        0.01
thermo_style    custom step temp pe ke etotal press
thermo          1000

run             5000
Generated 0 of 0 mixed pair_coeff terms from geometric mixing rule
Neighbor list info ...
  update: every = 1 steps, delay = 0 steps, check = yes
  max neighbors/atom: 2000, page size: 100000
  master list distance cutoff = 6.3
  ghost atom cutoff = 6.3
  binsize = 6.3, bins = 4 4 4
  1 neighbor lists, perpetual/occasional/extra = 1 0 0
  (1) pair yukawa/kk, perpetual
      attributes: full, newton off, kokkos_device
      pair build: full/bin/kk/device
      stencil: full/bin/3d
      bin: kk/device
Per MPI rank memory allocation (min/avg/max) = 3.371 | 3.371 | 3.371 Mbytes
   Step          Temp          PotEng         KinEng         TotEng         Press     
         0   0.0019880716   0.015472945    0.0029806512   0.018453596    0.0086123296 
      1000   0.0019572926   0.019012668    0.0029345054   0.021947173    0.0098329227 
      2000   0.0020512452   0.019076064    0.0030753655   0.022151429    0.00987301   
      3000   0.0019546754   0.019166849    0.0029305815   0.02209743     0.009884355  
      4000   0.002021027    0.019197759    0.0030300603   0.022227819    0.0099069912 
      5000   0.0019615289   0.019093528    0.0029408566   0.022034385    0.0098604608 
Loop time of 1.53884 on 1 procs for 5000 steps with 2048 atoms

Performance: 2807301.437 tau/day, 3249.191 timesteps/s, 6.654 Matom-step/s
100.0% CPU use with 1 MPI tasks x 1 OpenMP threads

MPI task timing breakdown:
Section |  min time  |  avg time  |  max time  |%varavg| %total
---------------------------------------------------------------
Pair    | 0.068646   | 0.068646   | 0.068646   |   0.0 |  4.46
Neigh   | 0.088867   | 0.088867   | 0.088867   |   0.0 |  5.77
Comm    | 0.058758   | 0.058758   | 0.058758   |   0.0 |  3.82
Output  | 0.00019913 | 0.00019913 | 0.00019913 |   0.0 |  0.01
Modify  | 1.1843     | 1.1843     | 1.1843     |   0.0 | 76.96
Other   |            | 0.1381     |            |       |  8.97

Nlocal:           2048 ave        2048 max        2048 min
Histogram: 1 0 0 0 0 0 0 0 0 0
Nghost:           6596 ave        6596 max        6596 min
Histogram: 1 0 0 0 0 0 0 0 0 0
Neighs:              0 ave           0 max           0 min
Histogram: 1 0 0 0 0 0 0 0 0 0
FullNghs:       510254 ave      510254 max      510254 min
Histogram: 1 0 0 0 0 0 0 0 0 0

Total # of neighbors = 510254
Ave neighs/atom = 249.14746
Neighbor list builds = 61
Dangerous builds = 0

unfix           therm
fix             nve all nve
reset_timestep  0
thermo          1000

run             30000
Generated 0 of 0 mixed pair_coeff terms from geometric mixing rule
Per MPI rank memory allocation (min/avg/max) = 3.371 | 3.371 | 3.371 Mbytes
   Step          Temp          PotEng         KinEng         TotEng         Press     
         0   0.0019615289   0.019093528    0.0029408566   0.022034385    0.0098604608 
      1000   0.0019615827   0.019093447    0.0029409373   0.022034385    0.0098588396 
      2000   0.0019433167   0.019120833    0.0029135517   0.022034385    0.009864144  
      3000   0.0019538989   0.019104967    0.0029294173   0.022034385    0.0098595067 
      4000   0.0019580672   0.019098718    0.0029356667   0.022034384    0.0098597351 
      5000   0.0019302715   0.019140391    0.0028939935   0.022034385    0.0098666234 
      6000   0.0020096433   0.019021391    0.0030129931   0.022034384    0.0098457373 
      7000   0.001922115    0.01915262     0.0028817646   0.022034385    0.0098696188 
      8000   0.0019577422   0.019099205    0.0029351794   0.022034384    0.009859113  
      9000   0.0019332935   0.01913586     0.0028985242   0.022034384    0.0098685613 
     10000   0.0019673878   0.019084744    0.0029496407   0.022034385    0.0098563203 
     11000   0.0019744808   0.019074109    0.0029602751   0.022034384    0.0098594909 
     12000   0.0019531274   0.019106124    0.0029282606   0.022034384    0.0098621396 
     13000   0.0019201623   0.019155548    0.0028788371   0.022034385    0.0098697961 
     14000   0.0019411964   0.019124012    0.0029103729   0.022034385    0.0098650223 
     15000   0.0019685713   0.019082969    0.0029514151   0.022034384    0.0098563441 
     16000   0.0019696812   0.019081305    0.0029530792   0.022034384    0.0098580921 
     17000   0.0019390347   0.019127253    0.0029071319   0.022034385    0.0098636058 
     18000   0.0019202998   0.019155342    0.0028790432   0.022034385    0.0098701703 
     19000   0.0019812758   0.019063922    0.0029704625   0.022034385    0.0098510551 
     20000   0.0019752709   0.019072925    0.0029614596   0.022034384    0.0098561075 
     21000   0.0019358879   0.019131971    0.002902414    0.022034385    0.0098687208 
     22000   0.001961553    0.019093492    0.0029408928   0.022034384    0.0098597753 
     23000   0.0019379803   0.019128834    0.002905551    0.022034385    0.0098643397 
     24000   0.0019706905   0.019079792    0.0029545923   0.022034384    0.009856262  
     25000   0.0019686124   0.019082908    0.0029514767   0.022034385    0.0098597266 
     26000   0.0019544647   0.019104119    0.0029302656   0.022034384    0.0098641901 
     27000   0.0019882419   0.019053478    0.0029809066   0.022034384    0.0098499885 
     28000   0.0019663962   0.01908623     0.0029481541   0.022034384    0.0098565844 
     29000   0.0019223013   0.019152341    0.002882044    0.022034385    0.0098692144 
     30000   0.001926393    0.019146206    0.0028881785   0.022034385    0.0098696974 
Loop time of 6.68382 on 1 procs for 30000 steps with 2048 atoms

Performance: 3878021.704 tau/day, 4488.451 timesteps/s, 9.192 Matom-step/s
100.0% CPU use with 1 MPI tasks x 1 OpenMP threads

MPI task timing breakdown:
Section |  min time  |  avg time  |  max time  |%varavg| %total
---------------------------------------------------------------
Pair    | 0.39474    | 0.39474    | 0.39474    |   0.0 |  5.91
Neigh   | 0.55041    | 0.55041    | 0.55041    |   0.0 |  8.24
Comm    | 0.31891    | 0.31891    | 0.31891    |   0.0 |  4.77
Output  | 0.0017193  | 0.0017193  | 0.0017193  |   0.0 |  0.03
Modify  | 4.2431     | 4.2431     | 4.2431     |   0.0 | 63.48
Other   |            | 1.175      |            |       | 17.58

Nlocal:           2048 ave        2048 max        2048 min
Histogram: 1 0 0 0 0 0 0 0 0 0
Nghost:           6638 ave        6638 max        6638 min
Histogram: 1 0 0 0 0 0 0 0 0 0
Neighs:              0 ave           0 max           0 min
Histogram: 1 0 0 0 0 0 0 0 0 0
FullNghs:       510430 ave      510430 max      510430 min
Histogram: 1 0 0 0 0 0 0 0 0 0

Total # of neighbors = 510430
Ave neighs/atom = 249.2334
Neighbor list builds = 380
Dangerous builds = 0
Total wall time: 0:00:08
