LAMMPS (22 Jul 2025 - Update 3)
KOKKOS mode with Kokkos version 4.6.2 is enabled
  will use up to 1 GPU(s) per node
  using 1 OpenMP thread(s) per MPI task
package kokkos
# Yukawa OCP: k2_G31 (kappa=2.0, Gamma=31.0)
# Kokkos-CUDA on Titan V — GPU vs GPU comparison with barraCuda

package         kokkos
units           lj
atom_style      atomic
boundary        p p p

lattice         fcc 0.238732414637843
Lattice spacing in x,y,z = 2.5588777 2.5588777 2.5588777
region          box block 0 8 0 8 0 8
create_box      1 box
Created orthogonal box = (0 0 0) to (20.471022 20.471022 20.471022)
  1 by 1 by 1 MPI processor grid
create_atoms    1 box
Created 2048 atoms
  using lattice units in orthogonal box = (0 0 0) to (20.471022 20.471022 20.471022)
  create_atoms CPU = 0.003 seconds
mass            1 1.0

pair_style      yukawa 2.0 6.5
pair_coeff      1 1 1.0

velocity        all create 0.03225806451612903 42 dist gaussian

fix             therm all nvt temp 0.03225806451612903 0.03225806451612903 1.0
timestep        0.01
thermo_style    custom step temp pe ke etotal press
thermo          1000

run             5000
Generated 0 of 0 mixed pair_coeff terms from geometric mixing rule
Neighbor list info ...
  update: every = 1 steps, delay = 0 steps, check = yes
  max neighbors/atom: 2000, page size: 100000
  master list distance cutoff = 6.8
  ghost atom cutoff = 6.8
  binsize = 6.8, bins = 4 4 4
  1 neighbor lists, perpetual/occasional/extra = 1 0 0
  (1) pair yukawa/kk, perpetual
      attributes: full, newton off, kokkos_device
      pair build: full/bin/kk/device
      stencil: full/bin/3d
      bin: kk/device
Per MPI rank memory allocation (min/avg/max) = 3.371 | 3.371 | 3.371 Mbytes
   Step          Temp          PotEng         KinEng         TotEng         Press     
         0   0.032258065    0.10590299     0.04836347     0.15426646     0.049950019  
      1000   0.031704987    0.13684409     0.04753426     0.18437835     0.056697235  
      2000   0.031807558    0.13655751     0.04768804     0.18424555     0.056650175  
      3000   0.032202965    0.13735032     0.048280861    0.18563118     0.056936891  
      4000   0.032070525    0.13850794     0.048082298    0.18659024     0.057145712  
      5000   0.032750096    0.13708818     0.049101157    0.18618933     0.057008625  
Loop time of 1.97997 on 1 procs for 5000 steps with 2048 atoms

Performance: 2181851.437 tau/day, 2525.291 timesteps/s, 5.172 Matom-step/s
100.1% CPU use with 1 MPI tasks x 1 OpenMP threads

MPI task timing breakdown:
Section |  min time  |  avg time  |  max time  |%varavg| %total
---------------------------------------------------------------
Pair    | 0.075641   | 0.075641   | 0.075641   |   0.0 |  3.82
Neigh   | 0.38777    | 0.38777    | 0.38777    |   0.0 | 19.58
Comm    | 0.13594    | 0.13594    | 0.13594    |   0.0 |  6.87
Output  | 0.00019836 | 0.00019836 | 0.00019836 |   0.0 |  0.01
Modify  | 1.2548     | 1.2548     | 1.2548     |   0.0 | 63.38
Other   |            | 0.1256     |            |       |  6.34

Nlocal:           2048 ave        2048 max        2048 min
Histogram: 1 0 0 0 0 0 0 0 0 0
Nghost:           7408 ave        7408 max        7408 min
Histogram: 1 0 0 0 0 0 0 0 0 0
Neighs:              0 ave           0 max           0 min
Histogram: 1 0 0 0 0 0 0 0 0 0
FullNghs:       641704 ave      641704 max      641704 min
Histogram: 1 0 0 0 0 0 0 0 0 0

Total # of neighbors = 641704
Ave neighs/atom = 313.33203
Neighbor list builds = 250
Dangerous builds = 0

unfix           therm
fix             nve all nve
reset_timestep  0
thermo          1000

run             30000
Generated 0 of 0 mixed pair_coeff terms from geometric mixing rule
Per MPI rank memory allocation (min/avg/max) = 3.371 | 3.371 | 3.371 Mbytes
   Step          Temp          PotEng         KinEng         TotEng         Press     
         0   0.032750096    0.13708818     0.049101157    0.18618933     0.057008625  
      1000   0.031972763    0.13825369     0.047935726    0.18618942     0.057052432  
      2000   0.032472608    0.13750427     0.048685128    0.1861894      0.057048137  
      3000   0.032499181    0.13746438     0.048724968    0.18618934     0.057026163  
      4000   0.031974525    0.13825096     0.047938368    0.18618933     0.05709431   
      5000   0.031918294    0.13833528     0.047854064    0.18618935     0.057099864  
      6000   0.032144769    0.13799579     0.04819361     0.1861894      0.057072623  
      7000   0.032438523    0.13755534     0.048634026    0.18618936     0.057047662  
      8000   0.032531954    0.13741524     0.048774104    0.18618935     0.057054622  
      9000   0.032176913    0.13794752     0.048241802    0.18618932     0.057043983  
     10000   0.031587023    0.13883195     0.0473574      0.18618935     0.057098805  
     11000   0.032310308    0.13774751     0.048441797    0.18618931     0.057055235  
     12000   0.031944068    0.13829667     0.047892705    0.18618937     0.057079331  
     13000   0.032180773    0.13794174     0.04824759     0.18618933     0.057058963  
     14000   0.031856838    0.13842743     0.047761925    0.18618936     0.057073069  
     15000   0.032245886    0.13784415     0.048345212    0.18618936     0.057033379  
     16000   0.032140661    0.13800197     0.048187452    0.18618942     0.057070091  
     17000   0.031893784    0.13837202     0.047817317    0.18618934     0.057072391  
     18000   0.033037506    0.13665733     0.049532062    0.18618939     0.056959871  
     19000   0.032238284    0.13785556     0.048333813    0.18618937     0.057047674  
     20000   0.032463015    0.13751861     0.048670745    0.18618936     0.057047517  
     21000   0.031966972    0.13826232     0.047927045    0.18618937     0.057073503  
     22000   0.032954696    0.13678144     0.049407907    0.18618934     0.056987091  
     23000   0.032270103    0.13780787     0.048381519    0.18618939     0.057021983  
     24000   0.032062604    0.13811894     0.048070422    0.18618937     0.057058371  
     25000   0.032169649    0.1379585      0.048230912    0.18618941     0.057037182  
     26000   0.032433587    0.13756274     0.048626625    0.18618936     0.056986067  
     27000   0.032264478    0.1378163      0.048373086    0.18618938     0.05704997   
     28000   0.032399927    0.1376132      0.048576161    0.18618937     0.05702497   
     29000   0.032052875    0.13813357     0.048055836    0.18618941     0.057062983  
     30000   0.032370174    0.1376578      0.048531552    0.18618935     0.057078314  
Loop time of 9.57566 on 1 procs for 30000 steps with 2048 atoms

Performance: 2706863.263 tau/day, 3132.944 timesteps/s, 6.416 Matom-step/s
100.1% CPU use with 1 MPI tasks x 1 OpenMP threads

MPI task timing breakdown:
Section |  min time  |  avg time  |  max time  |%varavg| %total
---------------------------------------------------------------
Pair    | 0.43214    | 0.43214    | 0.43214    |   0.0 |  4.51
Neigh   | 2.3361     | 2.3361     | 2.3361     |   0.0 | 24.40
Comm    | 0.79546    | 0.79546    | 0.79546    |   0.0 |  8.31
Output  | 0.0017072  | 0.0017072  | 0.0017072  |   0.0 |  0.02
Modify  | 5.1171     | 5.1171     | 5.1171     |   0.0 | 53.44
Other   |            | 0.8932     |            |       |  9.33

Nlocal:           2048 ave        2048 max        2048 min
Histogram: 1 0 0 0 0 0 0 0 0 0
Nghost:           7354 ave        7354 max        7354 min
Histogram: 1 0 0 0 0 0 0 0 0 0
Neighs:              0 ave           0 max           0 min
Histogram: 1 0 0 0 0 0 0 0 0 0
FullNghs:       642208 ave      642208 max      642208 min
Histogram: 1 0 0 0 0 0 0 0 0 0

Total # of neighbors = 642208
Ave neighs/atom = 313.57812
Neighbor list builds = 1508
Dangerous builds = 0
Total wall time: 0:00:11
