LAMMPS (22 Jul 2025 - Update 3)
KOKKOS mode with Kokkos version 4.6.2 is enabled
  will use up to 1 GPU(s) per node
  using 1 OpenMP thread(s) per MPI task
package kokkos
# Yukawa OCP: k1_G72 (kappa=1.0, Gamma=72.0)
# Kokkos-CUDA on Titan V — GPU vs GPU comparison with barraCuda

package         kokkos
units           lj
atom_style      atomic
boundary        p p p

lattice         fcc 0.238732414637843
Lattice spacing in x,y,z = 2.5588777 2.5588777 2.5588777
region          box block 0 8 0 8 0 8
create_box      1 box
Created orthogonal box = (0 0 0) to (20.471022 20.471022 20.471022)
  1 by 1 by 1 MPI processor grid
create_atoms    1 box
Created 2048 atoms
  using lattice units in orthogonal box = (0 0 0) to (20.471022 20.471022 20.471022)
  create_atoms CPU = 0.003 seconds
mass            1 1.0

pair_style      yukawa 1.0 8.0
pair_coeff      1 1 1.0

velocity        all create 0.013888888888888888 42 dist gaussian

fix             therm all nvt temp 0.013888888888888888 0.013888888888888888 1.0
timestep        0.01
thermo_style    custom step temp pe ke etotal press
thermo          1000

run             5000
Generated 0 of 0 mixed pair_coeff terms from geometric mixing rule
Neighbor list info ...
  update: every = 1 steps, delay = 0 steps, check = yes
  max neighbors/atom: 2000, page size: 100000
  master list distance cutoff = 8.3
  ghost atom cutoff = 8.3
  binsize = 8.3, bins = 3 3 3
  1 neighbor lists, perpetual/occasional/extra = 1 0 0
  (1) pair yukawa/kk, perpetual
      attributes: full, newton off, kokkos_device
      pair build: full/bin/kk/device
      stencil: full/bin/3d
      bin: kk/device
Per MPI rank memory allocation (min/avg/max) = 3.535 | 3.535 | 3.535 Mbytes
   Step          Temp          PotEng         KinEng         TotEng         Press     
         0   0.013888889    0.99911862     0.020823161    1.0199418      0.29430343   
      1000   0.014808255    1.021931       0.022201537    1.0441325      0.29716255   
      2000   0.014590891    1.0230075      0.02187565     1.0448832      0.29723705   
      3000   0.014049373    1.023149       0.021063769    1.0442128      0.29714201   
      4000   0.014062511    1.0235552      0.021083467    1.0446387      0.29719491   
      5000   0.014063767    1.0223259      0.02108535     1.0434113      0.29705238   
Loop time of 2.84691 on 1 procs for 5000 steps with 2048 atoms

Performance: 1517435.863 tau/day, 1756.292 timesteps/s, 3.597 Matom-step/s
100.0% CPU use with 1 MPI tasks x 1 OpenMP threads

MPI task timing breakdown:
Section |  min time  |  avg time  |  max time  |%varavg| %total
---------------------------------------------------------------
Pair    | 0.074176   | 0.074176   | 0.074176   |   0.0 |  2.61
Neigh   | 0.69734    | 0.69734    | 0.69734    |   0.0 | 24.49
Comm    | 0.1049     | 0.1049     | 0.1049     |   0.0 |  3.68
Output  | 0.00021752 | 0.00021752 | 0.00021752 |   0.0 |  0.01
Modify  | 1.8449     | 1.8449     | 1.8449     |   0.0 | 64.81
Other   |            | 0.1253     |            |       |  4.40

Nlocal:           2048 ave        2048 max        2048 min
Histogram: 1 0 0 0 0 0 0 0 0 0
Nghost:          10097 ave       10097 max       10097 min
Histogram: 1 0 0 0 0 0 0 0 0 0
Neighs:              0 ave           0 max           0 min
Histogram: 1 0 0 0 0 0 0 0 0 0
FullNghs:  1.16894e+06 ave 1.16894e+06 max 1.16894e+06 min
Histogram: 1 0 0 0 0 0 0 0 0 0

Total # of neighbors = 1168936
Ave neighs/atom = 570.76953
Neighbor list builds = 165
Dangerous builds = 0

unfix           therm
fix             nve all nve
reset_timestep  0
thermo          1000

run             30000
Generated 0 of 0 mixed pair_coeff terms from geometric mixing rule
Per MPI rank memory allocation (min/avg/max) = 3.444 | 3.444 | 3.444 Mbytes
   Step          Temp          PotEng         KinEng         TotEng         Press     
         0   0.014063767    1.0223259      0.02108535     1.0434113      0.29705238   
      1000   0.013834326    1.0226769      0.020741357    1.0434182      0.29703142   
      2000   0.01363407     1.0229741      0.020441119    1.0434153      0.29700615   
      3000   0.01355017     1.0231028      0.02031533     1.0434181      0.29701789   
      4000   0.013947697    1.0225033      0.020911331    1.0434147      0.29702929   
      5000   0.013613267    1.0229996      0.02040993     1.0434096      0.29700477   
      6000   0.013850561    1.0226466      0.020765698    1.0434123      0.29702614   
      7000   0.013934687    1.02252        0.020891824    1.0434118      0.29703107   
      8000   0.013882071    1.0225992      0.020812939    1.0434121      0.29701835   
      9000   0.013511686    1.0231576      0.020257632    1.0434153      0.29701167   
     10000   0.013440083    1.0232616      0.020150281    1.0434119      0.29699808   
     11000   0.013703866    1.0228735      0.020545762    1.0434193      0.297018     
     12000   0.013691348    1.0228875      0.020526994    1.0434145      0.2970138    
     13000   0.013643434    1.0229542      0.020455158    1.0434094      0.29701338   
     14000   0.013413679    1.0233014      0.020110694    1.0434121      0.29700263   
     15000   0.0138137      1.0226993      0.020710433    1.0434097      0.29701134   
     16000   0.013679246    1.0229013      0.020508851    1.0434102      0.2970124    
     17000   0.014008581    1.0224086      0.021002612    1.0434112      0.29702013   
     18000   0.013814617    1.0227011      0.020711808    1.0434129      0.29701434   
     19000   0.013548028    1.0231075      0.02031212     1.0434196      0.29701758   
     20000   0.013695602    1.0228782      0.020533371    1.0434115      0.29701276   
     21000   0.013943082    1.0225052      0.020904411    1.0434096      0.29702359   
     22000   0.013807349    1.0227059      0.020700911    1.0434069      0.29703365   
     23000   0.013607849    1.0230122      0.020401806    1.043414       0.29701986   
     24000   0.013662847    1.0229297      0.020484264    1.043414       0.29701652   
     25000   0.013731915    1.0228244      0.020587815    1.0434122      0.29701669   
     26000   0.01384881     1.0226456      0.020763072    1.0434087      0.29701335   
     27000   0.013606643    1.0230117      0.020399999    1.0434117      0.29700509   
     28000   0.013814698    1.0227014      0.020711928    1.0434133      0.29702441   
     29000   0.013664653    1.0229305      0.020486972    1.0434174      0.29702189   
     30000   0.013824859    1.022686       0.020727162    1.0434132      0.29702464   
Loop time of 14.8849 on 1 procs for 30000 steps with 2048 atoms

Performance: 1741361.040 tau/day, 2015.464 timesteps/s, 4.128 Matom-step/s
100.0% CPU use with 1 MPI tasks x 1 OpenMP threads

MPI task timing breakdown:
Section |  min time  |  avg time  |  max time  |%varavg| %total
---------------------------------------------------------------
Pair    | 0.43314    | 0.43314    | 0.43314    |   0.0 |  2.91
Neigh   | 4.2505     | 4.2505     | 4.2505     |   0.0 | 28.56
Comm    | 0.62886    | 0.62886    | 0.62886    |   0.0 |  4.22
Output  | 0.0017303  | 0.0017303  | 0.0017303  |   0.0 |  0.01
Modify  | 8.543      | 8.543      | 8.543      |   0.0 | 57.39
Other   |            | 1.028      |            |       |  6.90

Nlocal:           2048 ave        2048 max        2048 min
Histogram: 1 0 0 0 0 0 0 0 0 0
Nghost:          10144 ave       10144 max       10144 min
Histogram: 1 0 0 0 0 0 0 0 0 0
Neighs:              0 ave           0 max           0 min
Histogram: 1 0 0 0 0 0 0 0 0 0
FullNghs:  1.16929e+06 ave 1.16929e+06 max 1.16929e+06 min
Histogram: 1 0 0 0 0 0 0 0 0 0

Total # of neighbors = 1169286
Ave neighs/atom = 570.94043
Neighbor list builds = 1004
Dangerous builds = 0
Total wall time: 0:00:17
